<?xml version="1.0" encoding="UTF-8"?>

<!-- generated on 2026-05-21T10:25:49.932974-05:00 by Eclipse SUMO sumo 1.26.0
<sumoConfiguration xmlns:xsi="http://www.w3.org/2001/XMLSchema-instance" xsi:noNamespaceSchemaLocation="http://sumo.dlr.de/xsd/sumoConfiguration.xsd">

    <input>
        <net-file value="sumo_scenario\network.net.xml"/>
        <route-files value="sumo_scenario\vehicles.rou.xml"/>
        <additional-files value="sumo_scenario\additional.add.xml"/>
    </input>

    <output>
        <emission-output value="sumo_outputs\emissions.xml"/>
        <battery-output value="sumo_outputs\battery.xml"/>
        <chargingstations-output value="sumo_outputs\chargingstations.xml"/>
        <fcd-output value="sumo_outputs\fcd.xml"/>
        <tripinfo-output value="sumo_outputs\tripinfo.xml"/>
        <vehroute-output value="sumo_outputs\vehroutes.xml"/>
    </output>

    <time>
        <begin value="0"/>
        <end value="86400"/>
        <step-length value="1.0"/>
    </time>

    <processing>
        <collision.action value="warn"/>
        <time-to-teleport value="-1"/>
    </processing>

    <report>
        <no-warnings value="true"/>
    </report>

    <battery>
        <device.battery.probability value="1.0"/>
    </battery>

    <traci_server>
        <remote-port value="59415"/>
    </traci_server>

</sumoConfiguration>
-->

<emission-export xmlns:xsi="http://www.w3.org/2001/XMLSchema-instance" xsi:noNamespaceSchemaLocation="http://sumo.dlr.de/xsd/emission_file.xsd">
    <timestep time="0.00">
        <vehicle id="ev_0" eclass="Energy/default" CO2="0.00" CO="0.00" HC="0.00" NOx="0.00" PMx="0.00" fuel="0.00" electricity="0.03" noise="55.94" route="route_0" type="ev_type" waiting="0.00" lane="e0_15_0" pos="4.60" speed="0.00" angle="70.59" x="1246.99" y="895.08"/>
    </timestep>
    <timestep time="1.00">
        <vehicle id="ev_0" eclass="Energy/default" CO2="0.00" CO="0.00" HC="0.00" NOx="0.00" PMx="0.00" fuel="0.00" electricity="1.61" noise="68.37" route="route_0" type="ev_type" waiting="0.00" lane="e0_15_0" pos="7.20" speed="2.60" angle="70.59" x="1249.41" y="895.94"/>
    </timestep>
    <timestep time="2.00">
        <vehicle id="ev_0" eclass="Energy/default" CO2="0.00" CO="0.00" HC="0.00" NOx="0.00" PMx="0.00" fuel="0.00" electricity="3.78" noise="67.52" route="route_0" type="ev_type" waiting="0.00" lane="e0_15_0" pos="11.99" speed="4.79" angle="70.59" x="1253.89" y="897.52"/>
    </timestep>
    <timestep time="3.00">
        <vehicle id="ev_0" eclass="Energy/default" CO2="0.00" CO="0.00" HC="0.00" NOx="0.00" PMx="0.00" fuel="0.00" electricity="4.48" noise="66.07" route="route_0" type="ev_type" waiting="0.00" lane="e0_15_0" pos="18.46" speed="6.47" angle="70.59" x="1259.93" y="899.65"/>
    </timestep>
    <timestep time="4.00">
        <vehicle id="ev_0" eclass="Energy/default" CO2="0.00" CO="0.00" HC="0.00" NOx="0.00" PMx="0.00" fuel="0.00" electricity="6.05" noise="67.18" route="route_0" type="ev_type" waiting="0.00" lane="e0_15_0" pos="26.68" speed="8.22" angle="70.59" x="1267.61" y="902.35"/>
    </timestep>
    <timestep time="5.00">
        <vehicle id="ev_0" eclass="Energy/default" CO2="0.00" CO="0.00" HC="0.00" NOx="0.00" PMx="0.00" fuel="0.00" electricity="7.38" noise="67.90" route="route_0" type="ev_type" waiting="0.00" lane="e0_15_0" pos="36.61" speed="9.93" angle="70.59" x="1276.88" y="905.62"/>
        <vehicle id="ev_1" eclass="Energy/default" CO2="0.00" CO="0.00" HC="0.00" NOx="0.00" PMx="0.00" fuel="0.00" electricity="0.03" noise="55.94" route="route_1" type="ev_type" waiting="0.00" lane="e0_2_0" pos="4.60" speed="0.00" angle="173.02" x="1232.03" y="876.12"/>
    </timestep>
    <timestep time="6.00">
        <vehicle id="ev_0" eclass="Energy/default" CO2="0.00" CO="0.00" HC="0.00" NOx="0.00" PMx="0.00" fuel="0.00" electricity="7.07" noise="67.27" route="route_0" type="ev_type" waiting="0.00" lane="e0_15_0" pos="47.91" speed="11.30" angle="70.59" x="1287.44" y="909.34"/>
        <vehicle id="ev_1" eclass="Energy/default" CO2="0.00" CO="0.00" HC="0.00" NOx="0.00" PMx="0.00" fuel="0.00" electricity="0.77" noise="64.31" route="route_1" type="ev_type" waiting="0.00" lane="e0_2_0" pos="6.35" speed="1.75" angle="173.02" x="1232.24" y="874.43"/>
    </timestep>
    <timestep time="7.00">
        <vehicle id="ev_0" eclass="Energy/default" CO2="0.00" CO="0.00" HC="0.00" NOx="0.00" PMx="0.00" fuel="0.00" electricity="12.88" noise="71.66" route="route_0" type="ev_type" waiting="0.00" lane="e0_15_0" pos="61.42" speed="13.50" angle="70.59" x="1300.04" y="913.78"/>
        <vehicle id="ev_1" eclass="Energy/default" CO2="0.00" CO="0.00" HC="0.00" NOx="0.00" PMx="0.00" fuel="0.00" electricity="2.44" noise="65.78" route="route_1" type="ev_type" waiting="0.00" lane="e0_2_0" pos="10.01" speed="3.66" angle="173.02" x="1232.67" y="870.91"/>
    </timestep>
    <timestep time="8.00">
        <vehicle id="ev_0" eclass="Energy/default" CO2="0.00" CO="0.00" HC="0.00" NOx="0.00" PMx="0.00" fuel="0.00" electricity="-2.52" noise="62.54" route="route_0" type="ev_type" waiting="0.00" lane="e0_15_0" pos="74.29" speed="12.88" angle="70.59" x="1312.07" y="918.02"/>
        <vehicle id="ev_1" eclass="Energy/default" CO2="0.00" CO="0.00" HC="0.00" NOx="0.00" PMx="0.00" fuel="0.00" electricity="4.59" noise="67.48" route="route_1" type="ev_type" waiting="0.00" lane="e0_2_0" pos="15.75" speed="5.75" angle="173.02" x="1233.35" y="865.37"/>
    </timestep>
    <timestep time="9.00">
        <vehicle id="ev_0" eclass="Energy/default" CO2="0.00" CO="0.00" HC="0.00" NOx="0.00" PMx="0.00" fuel="0.00" electricity="6.31" noise="67.06" route="route_0" type="ev_type" waiting="0.00" lane="e0_15_0" pos="88.08" speed="13.79" angle="70.59" x="1324.95" y="922.56"/>
        <vehicle id="ev_1" eclass="Energy/default" CO2="0.00" CO="0.00" HC="0.00" NOx="0.00" PMx="0.00" fuel="0.00" electricity="4.91" noise="66.06" route="route_1" type="ev_type" waiting="0.00" lane="e0_2_0" pos="23.08" speed="7.33" angle="173.02" x="1234.21" y="858.31"/>
    </timestep>
    <timestep time="10.00">
        <vehicle id="ev_0" eclass="Energy/default" CO2="0.00" CO="0.00" HC="0.00" NOx="0.00" PMx="0.00" fuel="0.00" electricity="-3.43" noise="62.39" route="route_0" type="ev_type" waiting="0.00" lane="e0_15_0" pos="101.10" speed="13.01" angle="70.59" x="1337.10" y="926.84"/>
        <vehicle id="ev_1" eclass="Energy/default" CO2="0.00" CO="0.00" HC="0.00" NOx="0.00" PMx="0.00" fuel="0.00" electricity="6.16" noise="66.90" route="route_1" type="ev_type" waiting="0.00" lane="e0_2_0" pos="32.01" speed="8.92" angle="173.02" x="1235.27" y="849.71"/>
        <vehicle id="ev_2" eclass="Energy/default" CO2="0.00" CO="0.00" HC="0.00" NOx="0.00" PMx="0.00" fuel="0.00" electricity="0.03" noise="55.94" route="route_2" type="ev_type" waiting="0.00" lane="e0_11_0" pos="4.60" speed="0.00" angle="303.69" x="1219.64" y="901.43"/>
    </timestep>
    <timestep time="11.00">
        <vehicle id="ev_0" eclass="Energy/default" CO2="0.00" CO="0.00" HC="0.00" NOx="0.00" PMx="0.00" fuel="0.00" electricity="2.63" noise="64.91" route="route_0" type="ev_type" waiting="0.00" lane="e0_15_0" pos="114.40" speed="13.30" angle="70.59" x="1349.53" y="931.22"/>
        <vehicle id="ev_1" eclass="Energy/default" CO2="0.00" CO="0.00" HC="0.00" NOx="0.00" PMx="0.00" fuel="0.00" electricity="9.78" noise="69.97" route="route_1" type="ev_type" waiting="0.00" lane="e0_2_0" pos="43.02" speed="11.01" angle="173.02" x="1236.56" y="839.11"/>
        <vehicle id="ev_2" eclass="Energy/default" CO2="0.00" CO="0.00" HC="0.00" NOx="0.00" PMx="0.00" fuel="0.00" electricity="0.54" noise="62.83" route="route_2" type="ev_type" waiting="0.00" lane="e0_11_0" pos="6.04" speed="1.44" angle="303.69" x="1218.45" y="902.22"/>
    </timestep>
    <timestep time="12.00">
        <vehicle id="ev_0" eclass="Energy/default" CO2="0.00" CO="0.00" HC="0.00" NOx="0.00" PMx="0.00" fuel="0.00" electricity="-1.42" noise="62.92" route="route_0" type="ev_type" waiting="0.00" lane="e0_15_0" pos="127.28" speed="12.88" angle="70.59" x="1361.56" y="935.46"/>
        <vehicle id="ev_1" eclass="Energy/default" CO2="0.00" CO="0.00" HC="0.00" NOx="0.00" PMx="0.00" fuel="0.00" electricity="6.70" noise="66.99" route="route_1" type="ev_type" waiting="0.00" lane="e0_2_0" pos="55.19" speed="12.17" angle="173.02" x="1238.00" y="827.38"/>
        <vehicle id="ev_2" eclass="Energy/default" CO2="0.00" CO="0.00" HC="0.00" NOx="0.00" PMx="0.00" fuel="0.00" electricity="1.83" noise="64.53" route="route_2" type="ev_type" waiting="0.00" lane="e0_11_0" pos="9.16" speed="3.12" angle="303.69" x="1215.88" y="903.94"/>
    </timestep>
    <timestep time="13.00">
        <vehicle id="ev_0" eclass="Energy/default" CO2="0.00" CO="0.00" HC="0.00" NOx="0.00" PMx="0.00" fuel="0.00" electricity="4.62" noise="66.01" route="route_0" type="ev_type" waiting="0.00" lane="e0_15_0" pos="140.80" speed="13.52" angle="70.59" x="1374.18" y="939.91"/>
        <vehicle id="ev_1" eclass="Energy/default" CO2="0.00" CO="0.00" HC="0.00" NOx="0.00" PMx="0.00" fuel="0.00" electricity="2.72" noise="64.53" route="route_1" type="ev_type" waiting="0.00" lane="e0_2_0" pos="67.71" speed="12.52" angle="173.02" x="1239.48" y="815.32"/>
        <vehicle id="ev_2" eclass="Energy/default" CO2="0.00" CO="0.00" HC="0.00" NOx="0.00" PMx="0.00" fuel="0.00" electricity="5.16" noise="69.40" route="route_2" type="ev_type" waiting="0.00" lane="e0_11_0" pos="14.81" speed="5.66" angle="303.69" x="1211.21" y="907.05"/>
    </timestep>
    <timestep time="14.00">
        <vehicle id="ev_0" eclass="Energy/default" CO2="0.00" CO="0.00" HC="0.00" NOx="0.00" PMx="0.00" fuel="0.00" electricity="-2.92" noise="62.37" route="route_0" type="ev_type" waiting="0.00" lane="e0_15_0" pos="153.62" speed="12.82" angle="70.59" x="1386.15" y="944.13"/>
        <vehicle id="ev_1" eclass="Energy/default" CO2="0.00" CO="0.00" HC="0.00" NOx="0.00" PMx="0.00" fuel="0.00" electricity="1.29" noise="63.85" route="route_1" type="ev_type" waiting="0.00" lane="e0_2_0" pos="80.31" speed="12.60" angle="173.02" x="1240.96" y="803.18"/>
        <vehicle id="ev_2" eclass="Energy/default" CO2="0.00" CO="0.00" HC="0.00" NOx="0.00" PMx="0.00" fuel="0.00" electricity="6.10" noise="67.79" route="route_2" type="ev_type" waiting="0.00" lane="e0_11_0" pos="22.43" speed="7.62" angle="303.69" x="1204.93" y="911.23"/>
    </timestep>
    <timestep time="15.00">
        <vehicle id="ev_0" eclass="Energy/default" CO2="0.00" CO="0.00" HC="0.00" NOx="0.00" PMx="0.00" fuel="0.00" electricity="3.59" noise="65.37" route="route_0" type="ev_type" waiting="0.00" lane="e0_15_0" pos="166.90" speed="13.29" angle="70.59" x="1398.56" y="948.50"/>
        <vehicle id="ev_1" eclass="Energy/default" CO2="0.00" CO="0.00" HC="0.00" NOx="0.00" PMx="0.00" fuel="0.00" electricity="-0.22" noise="63.04" route="route_1" type="ev_type" waiting="0.00" lane="e0_2_0" pos="92.71" speed="12.40" angle="173.02" x="1242.43" y="791.23"/>
        <vehicle id="ev_2" eclass="Energy/default" CO2="0.00" CO="0.00" HC="0.00" NOx="0.00" PMx="0.00" fuel="0.00" electricity="7.38" noise="68.15" route="route_2" type="ev_type" waiting="0.00" lane="e0_11_0" pos="31.88" speed="9.45" angle="303.69" x="1197.13" y="916.43"/>
        <vehicle id="ev_3" eclass="Energy/default" CO2="0.00" CO="0.00" HC="0.00" NOx="0.00" PMx="0.00" fuel="0.00" electricity="0.03" noise="55.94" route="route_3" type="ev_type" waiting="0.00" lane="e0_53_0" pos="4.60" speed="0.00" angle="249.97" x="1210.96" y="885.54"/>
    </timestep>
    <timestep time="16.00">
        <vehicle id="ev_0" eclass="Energy/default" CO2="0.00" CO="0.00" HC="0.00" NOx="0.00" PMx="0.00" fuel="0.00" electricity="-0.67" noise="63.30" route="route_0" type="ev_type" waiting="0.00" lane="e0_15_0" pos="179.91" speed="13.00" angle="70.59" x="1410.70" y="952.78"/>
        <vehicle id="ev_1" eclass="Energy/default" CO2="0.00" CO="0.00" HC="0.00" NOx="0.00" PMx="0.00" fuel="0.00" electricity="0.60" noise="63.37" route="route_1" type="ev_type" waiting="0.00" lane="e0_2_0" pos="105.06" speed="12.36" angle="173.02" x="1243.88" y="779.33"/>
        <vehicle id="ev_2" eclass="Energy/default" CO2="0.00" CO="0.00" HC="0.00" NOx="0.00" PMx="0.00" fuel="0.00" electricity="12.70" noise="72.34" route="route_2" type="ev_type" waiting="0.00" lane="e0_11_0" pos="43.88" speed="11.99" angle="303.69" x="1187.24" y="923.03"/>
        <vehicle id="ev_3" eclass="Energy/default" CO2="0.00" CO="0.00" HC="0.00" NOx="0.00" PMx="0.00" fuel="0.00" electricity="1.01" noise="65.65" route="route_3" type="ev_type" waiting="0.00" lane="e0_53_0" pos="6.63" speed="2.03" angle="249.97" x="1209.15" y="884.88"/>
    </timestep>
    <timestep time="17.00">
        <vehicle id="ev_0" eclass="Energy/default" CO2="0.00" CO="0.00" HC="0.00" NOx="0.00" PMx="0.00" fuel="0.00" electricity="3.49" noise="65.39" route="route_0" type="ev_type" waiting="0.00" lane="e0_15_0" pos="193.35" speed="13.44" angle="70.59" x="1423.25" y="957.21"/>
        <vehicle id="ev_1" eclass="Energy/default" CO2="0.00" CO="0.00" HC="0.00" NOx="0.00" PMx="0.00" fuel="0.00" electricity="1.16" noise="63.67" route="route_1" type="ev_type" waiting="0.00" lane="e0_2_0" pos="117.48" speed="12.42" angle="173.02" x="1245.35" y="767.37"/>
        <vehicle id="ev_2" eclass="Energy/default" CO2="0.00" CO="0.00" HC="0.00" NOx="0.00" PMx="0.00" fuel="0.00" electricity="5.96" noise="66.61" route="route_2" type="ev_type" waiting="0.00" lane="e0_11_0" pos="56.80" speed="12.92" angle="303.69" x="1176.58" y="930.13"/>
        <vehicle id="ev_3" eclass="Energy/default" CO2="0.00" CO="0.00" HC="0.00" NOx="0.00" PMx="0.00" fuel="0.00" electricity="2.77" noise="66.13" route="route_3" type="ev_type" waiting="0.00" lane="e0_53_0" pos="10.61" speed="3.98" angle="249.97" x="1205.58" y="883.58"/>
    </timestep>
    <timestep time="18.00">
        <vehicle id="ev_0" eclass="Energy/default" CO2="0.00" CO="0.00" HC="0.00" NOx="0.00" PMx="0.00" fuel="0.00" electricity="-0.41" noise="63.55" route="route_0" type="ev_type" waiting="0.00" lane="e0_15_0" pos="206.55" speed="13.20" angle="70.59" x="1435.58" y="961.55"/>
        <vehicle id="ev_1" eclass="Energy/default" CO2="0.00" CO="0.00" HC="0.00" NOx="0.00" PMx="0.00" fuel="0.00" electricity="-2.14" noise="61.78" route="route_1" type="ev_type" waiting="0.00" lane="e0_2_0" pos="129.32" speed="11.84" angle="173.02" x="1246.75" y="755.96"/>
        <vehicle id="ev_2" eclass="Energy/default" CO2="0.00" CO="0.00" HC="0.00" NOx="0.00" PMx="0.00" fuel="0.00" electricity="4.71" noise="66.08" route="route_2" type="ev_type" waiting="0.00" lane="e0_11_0" pos="70.37" speed="13.57" angle="303.69" x="1165.39" y="937.59"/>
        <vehicle id="ev_3" eclass="Energy/default" CO2="0.00" CO="0.00" HC="0.00" NOx="0.00" PMx="0.00" fuel="0.00" electricity="6.22" noise="69.87" route="route_3" type="ev_type" waiting="0.00" lane="e0_53_0" pos="17.16" speed="6.54" angle="249.97" x="1199.72" y="881.44"/>
    </timestep>
    <timestep time="19.00">
        <vehicle id="ev_0" eclass="Energy/default" CO2="0.00" CO="0.00" HC="0.00" NOx="0.00" PMx="0.00" fuel="0.00" electricity="-1.16" noise="62.98" route="route_0" type="ev_type" waiting="0.00" lane="e0_15_0" pos="219.38" speed="12.83" angle="70.59" x="1447.56" y="965.78"/>
        <vehicle id="ev_1" eclass="Energy/default" CO2="0.00" CO="0.00" HC="0.00" NOx="0.00" PMx="0.00" fuel="0.00" electricity="0.38" noise="62.85" route="route_1" type="ev_type" waiting="0.00" lane="e0_2_0" pos="141.08" speed="11.76" angle="173.02" x="1248.13" y="744.63"/>
        <vehicle id="ev_2" eclass="Energy/default" CO2="0.00" CO="0.00" HC="0.00" NOx="0.00" PMx="0.00" fuel="0.00" electricity="-1.25" noise="63.22" route="route_2" type="ev_type" waiting="0.00" lane="e0_11_0" pos="83.55" speed="13.18" angle="303.69" x="1154.52" y="944.84"/>
        <vehicle id="ev_3" eclass="Energy/default" CO2="0.00" CO="0.00" HC="0.00" NOx="0.00" PMx="0.00" fuel="0.00" electricity="6.05" noise="67.13" route="route_3" type="ev_type" waiting="0.00" lane="e0_53_0" pos="25.43" speed="8.27" angle="249.97" x="1192.32" y="878.74"/>
    </timestep>
    <timestep time="20.00">
        <vehicle id="ev_0" eclass="Energy/default" CO2="0.00" CO="0.00" HC="0.00" NOx="0.00" PMx="0.00" fuel="0.00" electricity="3.10" noise="65.09" route="route_0" type="ev_type" waiting="0.00" lane="e0_15_0" pos="232.59" speed="13.21" angle="70.59" x="1459.90" y="970.12"/>
        <vehicle id="ev_1" eclass="Energy/default" CO2="0.00" CO="0.00" HC="0.00" NOx="0.00" PMx="0.00" fuel="0.00" electricity="3.68" noise="64.98" route="route_1" type="ev_type" waiting="0.00" lane="e0_2_0" pos="153.38" speed="12.30" angle="173.02" x="1249.58" y="732.78"/>
        <vehicle id="ev_2" eclass="Energy/default" CO2="0.00" CO="0.00" HC="0.00" NOx="0.00" PMx="0.00" fuel="0.00" electricity="-0.54" noise="63.29" route="route_2" type="ev_type" waiting="0.00" lane="e0_11_0" pos="96.47" speed="12.92" angle="303.69" x="1143.86" y="951.95"/>
        <vehicle id="ev_3" eclass="Energy/default" CO2="0.00" CO="0.00" HC="0.00" NOx="0.00" PMx="0.00" fuel="0.00" electricity="6.15" noise="66.61" route="route_3" type="ev_type" waiting="0.00" lane="e0_53_0" pos="35.12" speed="9.69" angle="249.97" x="1183.64" y="875.58"/>
        <vehicle id="ev_4" eclass="Energy/default" CO2="0.00" CO="0.00" HC="0.00" NOx="0.00" PMx="0.00" fuel="0.00" electricity="0.03" noise="55.94" route="route_4" type="ev_type" waiting="0.00" lane="e0_40_0" pos="4.60" speed="0.00" angle="235.92" x="1213.25" y="880.82"/>
    </timestep>
    <timestep time="21.00">
        <vehicle id="ev_0" eclass="Energy/default" CO2="0.00" CO="0.00" HC="0.00" NOx="0.00" PMx="0.00" fuel="0.00" electricity="4.31" noise="65.96" route="route_0" type="ev_type" waiting="0.00" lane="e0_15_0" pos="246.36" speed="13.77" angle="70.59" x="1472.76" y="974.66"/>
        <vehicle id="ev_1" eclass="Energy/default" CO2="0.00" CO="0.00" HC="0.00" NOx="0.00" PMx="0.00" fuel="0.00" electricity="-1.96" noise="61.78" route="route_1" type="ev_type" waiting="0.00" lane="e0_2_0" pos="165.14" speed="11.76" angle="173.02" x="1250.97" y="721.45"/>
        <vehicle id="ev_2" eclass="Energy/default" CO2="0.00" CO="0.00" HC="0.00" NOx="0.00" PMx="0.00" fuel="0.00" electricity="6.64" noise="67.27" route="route_2" type="ev_type" waiting="0.00" lane="e0_11_0" pos="110.35" speed="13.88" angle="303.69" x="1132.41" y="959.58"/>
        <vehicle id="ev_3" eclass="Energy/default" CO2="0.00" CO="0.00" HC="0.00" NOx="0.00" PMx="0.00" fuel="0.00" electricity="8.46" noise="68.51" route="route_3" type="ev_type" waiting="0.00" lane="e0_53_0" pos="46.49" speed="11.37" angle="249.97" x="1173.46" y="871.87"/>
        <vehicle id="ev_4" eclass="Energy/default" CO2="0.00" CO="0.00" HC="0.00" NOx="0.00" PMx="0.00" fuel="0.00" electricity="1.32" noise="67.14" route="route_4" type="ev_type" waiting="0.00" lane="e0_40_0" pos="6.94" speed="2.34" angle="235.92" x="1211.34" y="879.53"/>
    </timestep>
    <timestep time="22.00">
        <vehicle id="ev_0" eclass="Energy/default" CO2="0.00" CO="0.00" HC="0.00" NOx="0.00" PMx="0.00" fuel="0.00" electricity="-3.48" noise="62.35" route="route_0" type="ev_type" waiting="0.00" lane="e0_15_0" pos="259.34" speed="12.98" angle="70.59" x="1484.88" y="978.93"/>
        <vehicle id="ev_1" eclass="Energy/default" CO2="0.00" CO="0.00" HC="0.00" NOx="0.00" PMx="0.00" fuel="0.00" electricity="3.84" noise="65.08" route="route_1" type="ev_type" waiting="0.00" lane="e0_2_0" pos="177.48" speed="12.33" angle="173.02" x="1252.43" y="709.57"/>
        <vehicle id="ev_2" eclass="Energy/default" CO2="0.00" CO="0.00" HC="0.00" NOx="0.00" PMx="0.00" fuel="0.00" electricity="-3.93" noise="62.25" route="route_2" type="ev_type" waiting="0.00" lane="e0_11_0" pos="123.37" speed="13.02" angle="303.69" x="1121.68" y="966.74"/>
        <vehicle id="ev_3" eclass="Energy/default" CO2="0.00" CO="0.00" HC="0.00" NOx="0.00" PMx="0.00" fuel="0.00" electricity="9.28" noise="68.94" route="route_3" type="ev_type" waiting="0.00" lane="e0_53_0" pos="59.44" speed="12.95" angle="249.97" x="1161.87" y="867.64"/>
        <vehicle id="ev_4" eclass="Energy/default" CO2="0.00" CO="0.00" HC="0.00" NOx="0.00" PMx="0.00" fuel="0.00" electricity="2.12" noise="63.80" route="route_4" type="ev_type" waiting="0.00" lane="e0_40_0" pos="10.72" speed="3.78" angle="235.92" x="1208.24" y="877.43"/>
    </timestep>
    <timestep time="23.00">
        <vehicle id="ev_0" eclass="Energy/default" CO2="0.00" CO="0.00" HC="0.00" NOx="0.00" PMx="0.00" fuel="0.00" electricity="4.58" noise="66.03" route="route_0" type="ev_type" waiting="0.00" lane="e0_15_0" pos="272.94" speed="13.60" angle="70.59" x="1497.59" y="983.41"/>
        <vehicle id="ev_1" eclass="Energy/default" CO2="0.00" CO="0.00" HC="0.00" NOx="0.00" PMx="0.00" fuel="0.00" electricity="2.11" noise="64.23" route="route_1" type="ev_type" waiting="0.00" lane="e0_2_0" pos="190.04" speed="12.56" angle="173.02" x="1253.91" y="697.46"/>
        <vehicle id="ev_2" eclass="Energy/default" CO2="0.00" CO="0.00" HC="0.00" NOx="0.00" PMx="0.00" fuel="0.00" electricity="2.49" noise="64.83" route="route_2" type="ev_type" waiting="0.00" lane="e0_11_0" pos="136.65" speed="13.28" angle="303.69" x="1110.72" y="974.04"/>
        <vehicle id="ev_3" eclass="Energy/default" CO2="0.00" CO="0.00" HC="0.00" NOx="0.00" PMx="0.00" fuel="0.00" electricity="-0.60" noise="63.08" route="route_3" type="ev_type" waiting="0.00" lane="e0_53_0" pos="72.12" speed="12.68" angle="249.97" x="1150.52" y="863.51"/>
        <vehicle id="ev_4" eclass="Energy/default" CO2="0.00" CO="0.00" HC="0.00" NOx="0.00" PMx="0.00" fuel="0.00" electricity="5.68" noise="69.27" route="route_4" type="ev_type" waiting="0.00" lane="e0_40_0" pos="16.95" speed="6.23" angle="235.92" x="1203.13" y="873.98"/>
    </timestep>
    <timestep time="24.00">
        <vehicle id="ev_0" eclass="Energy/default" CO2="0.00" CO="0.00" HC="0.00" NOx="0.00" PMx="0.00" fuel="0.00" electricity="-4.31" noise="61.82" route="route_0" type="ev_type" waiting="0.00" lane="e0_15_0" pos="285.59" speed="12.65" angle="70.59" x="1509.40" y="987.57"/>
        <vehicle id="ev_1" eclass="Energy/default" CO2="0.00" CO="0.00" HC="0.00" NOx="0.00" PMx="0.00" fuel="0.00" electricity="-1.49" noise="62.27" route="route_1" type="ev_type" waiting="0.00" lane="e0_2_0" pos="202.15" speed="12.12" angle="173.02" x="1255.34" y="685.79"/>
        <vehicle id="ev_2" eclass="Energy/default" CO2="0.00" CO="0.00" HC="0.00" NOx="0.00" PMx="0.00" fuel="0.00" electricity="1.05" noise="64.20" route="route_2" type="ev_type" waiting="0.00" lane="e0_11_0" pos="149.95" speed="13.30" angle="303.69" x="1099.75" y="981.36"/>
        <vehicle id="ev_3" eclass="Energy/default" CO2="0.00" CO="0.00" HC="0.00" NOx="0.00" PMx="0.00" fuel="0.00" electricity="2.94" noise="64.92" route="route_3" type="ev_type" waiting="0.00" lane="e0_53_0" pos="85.16" speed="13.04" angle="249.97" x="1138.85" y="859.25"/>
        <vehicle id="ev_4" eclass="Energy/default" CO2="0.00" CO="0.00" HC="0.00" NOx="0.00" PMx="0.00" fuel="0.00" electricity="6.27" noise="67.60" route="route_4" type="ev_type" waiting="0.00" lane="e0_40_0" pos="25.05" speed="8.09" angle="235.92" x="1196.51" y="869.49"/>
    </timestep>
    <timestep time="25.00">
        <vehicle id="ev_0" eclass="Energy/default" CO2="0.00" CO="0.00" HC="0.00" NOx="0.00" PMx="0.00" fuel="0.00" electricity="6.72" noise="67.26" route="route_0" type="ev_type" waiting="0.00" lane="e0_15_0" pos="299.24" speed="13.65" angle="70.59" x="1522.14" y="992.06"/>
        <vehicle id="ev_1" eclass="Energy/default" CO2="0.00" CO="0.00" HC="0.00" NOx="0.00" PMx="0.00" fuel="0.00" electricity="5.25" noise="66.16" route="route_1" type="ev_type" waiting="0.00" lane="e0_2_0" pos="215.07" speed="12.91" angle="173.02" x="1256.86" y="673.35"/>
        <vehicle id="ev_2" eclass="Energy/default" CO2="0.00" CO="0.00" HC="0.00" NOx="0.00" PMx="0.00" fuel="0.00" electricity="0.07" noise="63.70" route="route_2" type="ev_type" waiting="0.00" lane="e0_11_0" pos="163.11" speed="13.15" angle="303.69" x="1088.90" y="988.59"/>
        <vehicle id="ev_3" eclass="Energy/default" CO2="0.00" CO="0.00" HC="0.00" NOx="0.00" PMx="0.00" fuel="0.00" electricity="3.09" noise="65.18" route="route_3" type="ev_type" waiting="0.00" lane="e0_53_0" pos="98.57" speed="13.41" angle="249.97" x="1126.84" y="854.87"/>
        <vehicle id="ev_4" eclass="Energy/default" CO2="0.00" CO="0.00" HC="0.00" NOx="0.00" PMx="0.00" fuel="0.00" electricity="9.93" noise="70.56" route="route_4" type="ev_type" waiting="0.00" lane="e0_40_0" pos="35.44" speed="10.40" angle="235.92" x="1187.99" y="863.73"/>
    </timestep>
    <timestep time="26.00">
        <vehicle id="ev_0" eclass="Energy/default" CO2="0.00" CO="0.00" HC="0.00" NOx="0.00" PMx="0.00" fuel="0.00" electricity="1.34" noise="64.57" route="route_0" type="ev_type" waiting="0.00" lane="e0_15_0" pos="312.94" speed="13.71" angle="70.59" x="1534.94" y="996.57"/>
        <vehicle id="ev_1" eclass="Energy/default" CO2="0.00" CO="0.00" HC="0.00" NOx="0.00" PMx="0.00" fuel="0.00" electricity="-1.40" noise="62.61" route="route_1" type="ev_type" waiting="0.00" lane="e0_2_0" pos="227.56" speed="12.49" angle="173.02" x="1258.34" y="661.32"/>
        <vehicle id="ev_2" eclass="Energy/default" CO2="0.00" CO="0.00" HC="0.00" NOx="0.00" PMx="0.00" fuel="0.00" electricity="3.27" noise="65.34" route="route_2" type="ev_type" waiting="0.00" lane="e0_11_0" pos="176.65" speed="13.55" angle="303.69" x="1077.73" y="996.04"/>
        <vehicle id="ev_3" eclass="Energy/default" CO2="0.00" CO="0.00" HC="0.00" NOx="0.00" PMx="0.00" fuel="0.00" electricity="-3.17" noise="62.15" route="route_3" type="ev_type" waiting="0.00" lane="e0_53_0" pos="111.23" speed="12.66" angle="249.97" x="1115.51" y="850.74"/>
        <vehicle id="ev_4" eclass="Energy/default" CO2="0.00" CO="0.00" HC="0.00" NOx="0.00" PMx="0.00" fuel="0.00" electricity="11.34" noise="70.75" route="route_4" type="ev_type" waiting="0.00" lane="e0_40_0" pos="47.94" speed="12.49" angle="235.92" x="1177.76" y="856.81"/>
    </timestep>
    <timestep time="27.00">
        <vehicle id="ev_0" eclass="Energy/default" CO2="0.00" CO="0.00" HC="0.00" NOx="0.00" PMx="0.00" fuel="0.00" electricity="0.36" noise="64.12" route="route_0" type="ev_type" waiting="0.00" lane="e0_15_0" pos="326.54" speed="13.60" angle="70.59" x="1547.64" y="1001.05"/>
        <vehicle id="ev_1" eclass="Energy/default" CO2="0.00" CO="0.00" HC="0.00" NOx="0.00" PMx="0.00" fuel="0.00" electricity="-0.73" noise="62.65" route="route_1" type="ev_type" waiting="0.00" lane="e0_2_0" pos="239.75" speed="12.19" angle="173.02" x="1259.77" y="649.57"/>
        <vehicle id="ev_2" eclass="Energy/default" CO2="0.00" CO="0.00" HC="0.00" NOx="0.00" PMx="0.00" fuel="0.00" electricity="2.60" noise="65.17" route="route_2" type="ev_type" waiting="0.00" lane="e0_11_0" pos="190.46" speed="13.81" angle="303.69" x="1066.34" y="1003.63"/>
        <vehicle id="ev_3" eclass="Energy/default" CO2="0.00" CO="0.00" HC="0.00" NOx="0.00" PMx="0.00" fuel="0.00" electricity="4.61" noise="65.93" route="route_3" type="ev_type" waiting="0.00" lane="e0_53_0" pos="124.54" speed="13.31" angle="249.97" x="1103.60" y="846.40"/>
        <vehicle id="ev_4" eclass="Energy/default" CO2="0.00" CO="0.00" HC="0.00" NOx="0.00" PMx="0.00" fuel="0.00" electricity="2.16" noise="64.35" route="route_4" type="ev_type" waiting="0.00" lane="e0_40_0" pos="60.67" speed="12.73" angle="235.92" x="1167.34" y="849.76"/>
    </timestep>
    <timestep time="28.00">
        <vehicle id="ev_0" eclass="Energy/default" CO2="0.00" CO="0.00" HC="0.00" NOx="0.00" PMx="0.00" fuel="0.00" electricity="1.49" noise="64.62" route="route_0" type="ev_type" waiting="0.00" lane="e0_15_0" pos="340.23" speed="13.68" angle="70.59" x="1560.42" y="1005.55"/>
        <vehicle id="ev_1" eclass="Energy/default" CO2="0.00" CO="0.00" HC="0.00" NOx="0.00" PMx="0.00" fuel="0.00" electricity="-1.29" noise="62.08" route="route_1" type="ev_type" waiting="0.00" lane="e0_2_0" pos="251.53" speed="11.78" angle="173.02" x="1261.16" y="638.22"/>
        <vehicle id="ev_2" eclass="Energy/default" CO2="0.00" CO="0.00" HC="0.00" NOx="0.00" PMx="0.00" fuel="0.00" electricity="-4.95" noise="61.76" route="route_2" type="ev_type" waiting="0.00" lane="e0_11_0" pos="203.22" speed="12.75" angle="303.69" x="1055.82" y="1010.64"/>
        <vehicle id="ev_3" eclass="Energy/default" CO2="0.00" CO="0.00" HC="0.00" NOx="0.00" PMx="0.00" fuel="0.00" electricity="-0.57" noise="63.37" route="route_3" type="ev_type" waiting="0.00" lane="e0_53_0" pos="137.59" speed="13.04" angle="249.97" x="1091.92" y="842.14"/>
        <vehicle id="ev_4" eclass="Energy/default" CO2="0.00" CO="0.00" HC="0.00" NOx="0.00" PMx="0.00" fuel="0.00" electricity="2.76" noise="64.83" route="route_4" type="ev_type" waiting="0.00" lane="e0_40_0" pos="73.72" speed="13.05" angle="235.92" x="1156.65" y="842.53"/>
    </timestep>
    <timestep time="29.00">
        <vehicle id="ev_0" eclass="Energy/default" CO2="0.00" CO="0.00" HC="0.00" NOx="0.00" PMx="0.00" fuel="0.00" electricity="-0.46" noise="63.70" route="route_0" type="ev_type" waiting="0.00" lane="e0_15_0" pos="353.67" speed="13.44" angle="70.59" x="1572.97" y="1009.98"/>
        <vehicle id="ev_1" eclass="Energy/default" CO2="0.00" CO="0.00" HC="0.00" NOx="0.00" PMx="0.00" fuel="0.00" electricity="7.22" noise="67.45" route="route_1" type="ev_type" waiting="0.00" lane="e0_2_0" pos="264.49" speed="12.95" angle="173.02" x="1262.69" y="625.74"/>
        <vehicle id="ev_2" eclass="Energy/default" CO2="0.00" CO="0.00" HC="0.00" NOx="0.00" PMx="0.00" fuel="0.00" electricity="5.09" noise="66.26" route="route_2" type="ev_type" waiting="0.00" lane="e0_11_0" pos="216.69" speed="13.47" angle="303.69" x="1044.71" y="1018.05"/>