<?xml version="1.0" encoding="UTF-8"?>

<!-- generated on 2026-05-21T10:25:49.932376-05:00 by Eclipse SUMO sumo 1.26.0
<sumoConfiguration xmlns:xsi="http://www.w3.org/2001/XMLSchema-instance" xsi:noNamespaceSchemaLocation="http://sumo.dlr.de/xsd/sumoConfiguration.xsd">

    <input>
        <net-file value="sumo_scenario\network.net.xml"/>
        <route-files value="sumo_scenario\vehicles.rou.xml"/>
        <additional-files value="sumo_scenario\additional.add.xml"/>
    </input>

    <output>
        <emission-output value="sumo_outputs\emissions.xml"/>
        <battery-output value="sumo_outputs\battery.xml"/>
        <chargingstations-output value="sumo_outputs\chargingstations.xml"/>
        <fcd-output value="sumo_outputs\fcd.xml"/>
        <tripinfo-output value="sumo_outputs\tripinfo.xml"/>
        <vehroute-output value="sumo_outputs\vehroutes.xml"/>
    </output>

    <time>
        <begin value="0"/>
        <end value="86400"/>
        <step-length value="1.0"/>
    </time>

    <processing>
        <collision.action value="warn"/>
        <time-to-teleport value="-1"/>
    </processing>

    <report>
        <no-warnings value="true"/>
    </report>

    <battery>
        <device.battery.probability value="1.0"/>
    </battery>

    <traci_server>
        <remote-port value="59415"/>
    </traci_server>

</sumoConfiguration>
-->

<fcd-export xmlns:xsi="http://www.w3.org/2001/XMLSchema-instance" xsi:noNamespaceSchemaLocation="http://sumo.dlr.de/xsd/fcd_file.xsd">
    <timestep time="0.00">
        <vehicle id="ev_0" x="1246.99" y="895.08" angle="70.59" type="ev_type" speed="0.00" pos="4.60" lane="e0_15_0" slope="0.00"/>
    </timestep>
    <timestep time="1.00">
        <vehicle id="ev_0" x="1249.41" y="895.94" angle="70.59" type="ev_type" speed="2.60" pos="7.20" lane="e0_15_0" slope="0.00"/>
    </timestep>
    <timestep time="2.00">
        <vehicle id="ev_0" x="1253.89" y="897.52" angle="70.59" type="ev_type" speed="4.79" pos="11.99" lane="e0_15_0" slope="0.00"/>
    </timestep>
    <timestep time="3.00">
        <vehicle id="ev_0" x="1259.93" y="899.65" angle="70.59" type="ev_type" speed="6.47" pos="18.46" lane="e0_15_0" slope="0.00"/>
    </timestep>
    <timestep time="4.00">
        <vehicle id="ev_0" x="1267.61" y="902.35" angle="70.59" type="ev_type" speed="8.22" pos="26.68" lane="e0_15_0" slope="0.00"/>
    </timestep>
    <timestep time="5.00">
        <vehicle id="ev_0" x="1276.88" y="905.62" angle="70.59" type="ev_type" speed="9.93" pos="36.61" lane="e0_15_0" slope="0.00"/>
        <vehicle id="ev_1" x="1232.03" y="876.12" angle="173.02" type="ev_type" speed="0.00" pos="4.60" lane="e0_2_0" slope="0.00"/>
    </timestep>
    <timestep time="6.00">
        <vehicle id="ev_0" x="1287.44" y="909.34" angle="70.59" type="ev_type" speed="11.30" pos="47.91" lane="e0_15_0" slope="0.00"/>
        <vehicle id="ev_1" x="1232.24" y="874.43" angle="173.02" type="ev_type" speed="1.75" pos="6.35" lane="e0_2_0" slope="0.00"/>
    </timestep>
    <timestep time="7.00">
        <vehicle id="ev_0" x="1300.04" y="913.78" angle="70.59" type="ev_type" speed="13.50" pos="61.42" lane="e0_15_0" slope="0.00"/>
        <vehicle id="ev_1" x="1232.67" y="870.91" angle="173.02" type="ev_type" speed="3.66" pos="10.01" lane="e0_2_0" slope="0.00"/>
    </timestep>
    <timestep time="8.00">
        <vehicle id="ev_0" x="1312.07" y="918.02" angle="70.59" type="ev_type" speed="12.88" pos="74.29" lane="e0_15_0" slope="0.00"/>
        <vehicle id="ev_1" x="1233.35" y="865.37" angle="173.02" type="ev_type" speed="5.75" pos="15.75" lane="e0_2_0" slope="0.00"/>
    </timestep>
    <timestep time="9.00">
        <vehicle id="ev_0" x="1324.95" y="922.56" angle="70.59" type="ev_type" speed="13.79" pos="88.08" lane="e0_15_0" slope="0.00"/>
        <vehicle id="ev_1" x="1234.21" y="858.31" angle="173.02" type="ev_type" speed="7.33" pos="23.08" lane="e0_2_0" slope="0.00"/>
    </timestep>
    <timestep time="10.00">
        <vehicle id="ev_0" x="1337.10" y="926.84" angle="70.59" type="ev_type" speed="13.01" pos="101.10" lane="e0_15_0" slope="0.00"/>
        <vehicle id="ev_1" x="1235.27" y="849.71" angle="173.02" type="ev_type" speed="8.92" pos="32.01" lane="e0_2_0" slope="0.00"/>
        <vehicle id="ev_2" x="1219.64" y="901.43" angle="303.69" type="ev_type" speed="0.00" pos="4.60" lane="e0_11_0" slope="0.00"/>
    </timestep>
    <timestep time="11.00">
        <vehicle id="ev_0" x="1349.53" y="931.22" angle="70.59" type="ev_type" speed="13.30" pos="114.40" lane="e0_15_0" slope="0.00"/>
        <vehicle id="ev_1" x="1236.56" y="839.11" angle="173.02" type="ev_type" speed="11.01" pos="43.02" lane="e0_2_0" slope="0.00"/>
        <vehicle id="ev_2" x="1218.45" y="902.22" angle="303.69" type="ev_type" speed="1.44" pos="6.04" lane="e0_11_0" slope="0.00"/>
    </timestep>
    <timestep time="12.00">
        <vehicle id="ev_0" x="1361.56" y="935.46" angle="70.59" type="ev_type" speed="12.88" pos="127.28" lane="e0_15_0" slope="0.00"/>
        <vehicle id="ev_1" x="1238.00" y="827.38" angle="173.02" type="ev_type" speed="12.17" pos="55.19" lane="e0_2_0" slope="0.00"/>
        <vehicle id="ev_2" x="1215.88" y="903.94" angle="303.69" type="ev_type" speed="3.12" pos="9.16" lane="e0_11_0" slope="0.00"/>
    </timestep>
    <timestep time="13.00">
        <vehicle id="ev_0" x="1374.18" y="939.91" angle="70.59" type="ev_type" speed="13.52" pos="140.80" lane="e0_15_0" slope="0.00"/>
        <vehicle id="ev_1" x="1239.48" y="815.32" angle="173.02" type="ev_type" speed="12.52" pos="67.71" lane="e0_2_0" slope="0.00"/>
        <vehicle id="ev_2" x="1211.21" y="907.05" angle="303.69" type="ev_type" speed="5.66" pos="14.81" lane="e0_11_0" slope="0.00"/>
    </timestep>
    <timestep time="14.00">
        <vehicle id="ev_0" x="1386.15" y="944.13" angle="70.59" type="ev_type" speed="12.82" pos="153.62" lane="e0_15_0" slope="0.00"/>
        <vehicle id="ev_1" x="1240.96" y="803.18" angle="173.02" type="ev_type" speed="12.60" pos="80.31" lane="e0_2_0" slope="0.00"/>
        <vehicle id="ev_2" x="1204.93" y="911.23" angle="303.69" type="ev_type" speed="7.62" pos="22.43" lane="e0_11_0" slope="0.00"/>
    </timestep>
    <timestep time="15.00">
        <vehicle id="ev_0" x="1398.56" y="948.50" angle="70.59" type="ev_type" speed="13.29" pos="166.90" lane="e0_15_0" slope="0.00"/>
        <vehicle id="ev_1" x="1242.43" y="791.23" angle="173.02" type="ev_type" speed="12.40" pos="92.71" lane="e0_2_0" slope="0.00"/>
        <vehicle id="ev_2" x="1197.13" y="916.43" angle="303.69" type="ev_type" speed="9.45" pos="31.88" lane="e0_11_0" slope="0.00"/>
        <vehicle id="ev_3" x="1210.96" y="885.54" angle="249.97" type="ev_type" speed="0.00" pos="4.60" lane="e0_53_0" slope="0.00"/>
    </timestep>
    <timestep time="16.00">
        <vehicle id="ev_0" x="1410.70" y="952.78" angle="70.59" type="ev_type" speed="13.00" pos="179.91" lane="e0_15_0" slope="0.00"/>
        <vehicle id="ev_1" x="1243.88" y="779.33" angle="173.02" type="ev_type" speed="12.36" pos="105.06" lane="e0_2_0" slope="0.00"/>
        <vehicle id="ev_2" x="1187.24" y="923.03" angle="303.69" type="ev_type" speed="11.99" pos="43.88" lane="e0_11_0" slope="0.00"/>
        <vehicle id="ev_3" x="1209.15" y="884.88" angle="249.97" type="ev_type" speed="2.03" pos="6.63" lane="e0_53_0" slope="0.00"/>
    </timestep>
    <timestep time="17.00">
        <vehicle id="ev_0" x="1423.25" y="957.21" angle="70.59" type="ev_type" speed="13.44" pos="193.35" lane="e0_15_0" slope="0.00"/>
        <vehicle id="ev_1" x="1245.35" y="767.37" angle="173.02" type="ev_type" speed="12.42" pos="117.48" lane="e0_2_0" slope="0.00"/>
        <vehicle id="ev_2" x="1176.58" y="930.13" angle="303.69" type="ev_type" speed="12.92" pos="56.80" lane="e0_11_0" slope="0.00"/>
        <vehicle id="ev_3" x="1205.58" y="883.58" angle="249.97" type="ev_type" speed="3.98" pos="10.61" lane="e0_53_0" slope="0.00"/>
    </timestep>
    <timestep time="18.00">
        <vehicle id="ev_0" x="1435.58" y="961.55" angle="70.59" type="ev_type" speed="13.20" pos="206.55" lane="e0_15_0" slope="0.00"/>
        <vehicle id="ev_1" x="1246.75" y="755.96" angle="173.02" type="ev_type" speed="11.84" pos="129.32" lane="e0_2_0" slope="0.00"/>
        <vehicle id="ev_2" x="1165.39" y="937.59" angle="303.69" type="ev_type" speed="13.57" pos="70.37" lane="e0_11_0" slope="0.00"/>
        <vehicle id="ev_3" x="1199.72" y="881.44" angle="249.97" type="ev_type" speed="6.54" pos="17.16" lane="e0_53_0" slope="0.00"/>
    </timestep>
    <timestep time="19.00">
        <vehicle id="ev_0" x="1447.56" y="965.78" angle="70.59" type="ev_type" speed="12.83" pos="219.38" lane="e0_15_0" slope="0.00"/>
        <vehicle id="ev_1" x="1248.13" y="744.63" angle="173.02" type="ev_type" speed="11.76" pos="141.08" lane="e0_2_0" slope="0.00"/>
        <vehicle id="ev_2" x="1154.52" y="944.84" angle="303.69" type="ev_type" speed="13.18" pos="83.55" lane="e0_11_0" slope="0.00"/>
        <vehicle id="ev_3" x="1192.32" y="878.74" angle="249.97" type="ev_type" speed="8.27" pos="25.43" lane="e0_53_0" slope="0.00"/>
    </timestep>
    <timestep time="20.00">
        <vehicle id="ev_0" x="1459.90" y="970.12" angle="70.59" type="ev_type" speed="13.21" pos="232.59" lane="e0_15_0" slope="0.00"/>
        <vehicle id="ev_1" x="1249.58" y="732.78" angle="173.02" type="ev_type" speed="12.30" pos="153.38" lane="e0_2_0" slope="0.00"/>
        <vehicle id="ev_2" x="1143.86" y="951.95" angle="303.69" type="ev_type" speed="12.92" pos="96.47" lane="e0_11_0" slope="0.00"/>
        <vehicle id="ev_3" x="1183.64" y="875.58" angle="249.97" type="ev_type" speed="9.69" pos="35.12" lane="e0_53_0" slope="0.00"/>
        <vehicle id="ev_4" x="1213.25" y="880.82" angle="235.92" type="ev_type" speed="0.00" pos="4.60" lane="e0_40_0" slope="0.00"/>
    </timestep>
    <timestep time="21.00">
        <vehicle id="ev_0" x="1472.76" y="974.66" angle="70.59" type="ev_type" speed="13.77" pos="246.36" lane="e0_15_0" slope="0.00"/>
        <vehicle id="ev_1" x="1250.97" y="721.45" angle="173.02" type="ev_type" speed="11.76" pos="165.14" lane="e0_2_0" slope="0.00"/>
        <vehicle id="ev_2" x="1132.41" y="959.58" angle="303.69" type="ev_type" speed="13.88" pos="110.35" lane="e0_11_0" slope="0.00"/>
        <vehicle id="ev_3" x="1173.46" y="871.87" angle="249.97" type="ev_type" speed="11.37" pos="46.49" lane="e0_53_0" slope="0.00"/>
        <vehicle id="ev_4" x="1211.34" y="879.53" angle="235.92" type="ev_type" speed="2.34" pos="6.94" lane="e0_40_0" slope="0.00"/>
    </timestep>
    <timestep time="22.00">
        <vehicle id="ev_0" x="1484.88" y="978.93" angle="70.59" type="ev_type" speed="12.98" pos="259.34" lane="e0_15_0" slope="0.00"/>
        <vehicle id="ev_1" x="1252.43" y="709.57" angle="173.02" type="ev_type" speed="12.33" pos="177.48" lane="e0_2_0" slope="0.00"/>
        <vehicle id="ev_2" x="1121.68" y="966.74" angle="303.69" type="ev_type" speed="13.02" pos="123.37" lane="e0_11_0" slope="0.00"/>
        <vehicle id="ev_3" x="1161.87" y="867.64" angle="249.97" type="ev_type" speed="12.95" pos="59.44" lane="e0_53_0" slope="0.00"/>
        <vehicle id="ev_4" x="1208.24" y="877.43" angle="235.92" type="ev_type" speed="3.78" pos="10.72" lane="e0_40_0" slope="0.00"/>
    </timestep>
    <timestep time="23.00">
        <vehicle id="ev_0" x="1497.59" y="983.41" angle="70.59" type="ev_type" speed="13.60" pos="272.94" lane="e0_15_0" slope="0.00"/>
        <vehicle id="ev_1" x="1253.91" y="697.46" angle="173.02" type="ev_type" speed="12.56" pos="190.04" lane="e0_2_0" slope="0.00"/>
        <vehicle id="ev_2" x="1110.72" y="974.04" angle="303.69" type="ev_type" speed="13.28" pos="136.65" lane="e0_11_0" slope="0.00"/>
        <vehicle id="ev_3" x="1150.52" y="863.51" angle="249.97" type="ev_type" speed="12.68" pos="72.12" lane="e0_53_0" slope="0.00"/>
        <vehicle id="ev_4" x="1203.13" y="873.98" angle="235.92" type="ev_type" speed="6.23" pos="16.95" lane="e0_40_0" slope="0.00"/>
    </timestep>
    <timestep time="24.00">
        <vehicle id="ev_0" x="1509.40" y="987.57" angle="70.59" type="ev_type" speed="12.65" pos="285.59" lane="e0_15_0" slope="0.00"/>
        <vehicle id="ev_1" x="1255.34" y="685.79" angle="173.02" type="ev_type" speed="12.12" pos="202.15" lane="e0_2_0" slope="0.00"/>
        <vehicle id="ev_2" x="1099.75" y="981.36" angle="303.69" type="ev_type" speed="13.30" pos="149.95" lane="e0_11_0" slope="0.00"/>
        <vehicle id="ev_3" x="1138.85" y="859.25" angle="249.97" type="ev_type" speed="13.04" pos="85.16" lane="e0_53_0" slope="0.00"/>
        <vehicle id="ev_4" x="1196.51" y="869.49" angle="235.92" type="ev_type" speed="8.09" pos="25.05" lane="e0_40_0" slope="0.00"/>
    </timestep>
    <timestep time="25.00">
        <vehicle id="ev_0" x="1522.14" y="992.06" angle="70.59" type="ev_type" speed="13.65" pos="299.24" lane="e0_15_0" slope="0.00"/>
        <vehicle id="ev_1" x="1256.86" y="673.35" angle="173.02" type="ev_type" speed="12.91" pos="215.07" lane="e0_2_0" slope="0.00"/>
        <vehicle id="ev_2" x="1088.90" y="988.59" angle="303.69" type="ev_type" speed="13.15" pos="163.11" lane="e0_11_0" slope="0.00"/>
        <vehicle id="ev_3" x="1126.84" y="854.87" angle="249.97" type="ev_type" speed="13.41" pos="98.57" lane="e0_53_0" slope="0.00"/>
        <vehicle id="ev_4" x="1187.99" y="863.73" angle="235.92" type="ev_type" speed="10.40" pos="35.44" lane="e0_40_0" slope="0.00"/>
    </timestep>
    <timestep time="26.00">
        <vehicle id="ev_0" x="1534.94" y="996.57" angle="70.59" type="ev_type" speed="13.71" pos="312.94" lane="e0_15_0" slope="0.00"/>
        <vehicle id="ev_1" x="1258.34" y="661.32" angle="173.02" type="ev_type" speed="12.49" pos="227.56" lane="e0_2_0" slope="0.00"/>
        <vehicle id="ev_2" x="1077.73" y="996.04" angle="303.69" type="ev_type" speed="13.55" pos="176.65" lane="e0_11_0" slope="0.00"/>
        <vehicle id="ev_3" x="1115.51" y="850.74" angle="249.97" type="ev_type" speed="12.66" pos="111.23" lane="e0_53_0" slope="0.00"/>
        <vehicle id="ev_4" x="1177.76" y="856.81" angle="235.92" type="ev_type" speed="12.49" pos="47.94" lane="e0_40_0" slope="0.00"/>
    </timestep>
    <timestep time="27.00">
        <vehicle id="ev_0" x="1547.64" y="1001.05" angle="70.59" type="ev_type" speed="13.60" pos="326.54" lane="e0_15_0" slope="0.00"/>
        <vehicle id="ev_1" x="1259.77" y="649.57" angle="173.02" type="ev_type" speed="12.19" pos="239.75" lane="e0_2_0" slope="0.00"/>
        <vehicle id="ev_2" x="1066.34" y="1003.63" angle="303.69" type="ev_type" speed="13.81" pos="190.46" lane="e0_11_0" slope="0.00"/>
        <vehicle id="ev_3" x="1103.60" y="846.40" angle="249.97" type="ev_type" speed="13.31" pos="124.54" lane="e0_53_0" slope="0.00"/>
        <vehicle id="ev_4" x="1167.34" y="849.76" angle="235.92" type="ev_type" speed="12.73" pos="60.67" lane="e0_40_0" slope="0.00"/>
    </timestep>
    <timestep time="28.00">
        <vehicle id="ev_0" x="1560.42" y="1005.55" angle="70.59" type="ev_type" speed="13.68" pos="340.23" lane="e0_15_0" slope="0.00"/>
        <vehicle id="ev_1" x="1261.16" y="638.22" angle="173.02" type="ev_type" speed="11.78" pos="251.53" lane="e0_2_0" slope="0.00"/>
        <vehicle id="ev_2" x="1055.82" y="1010.64" angle="303.69" type="ev_type" speed="12.75" pos="203.22" lane="e0_11_0" slope="0.00"/>
        <vehicle id="ev_3" x="1091.92" y="842.14" angle="249.97" type="ev_type" speed="13.04" pos="137.59" lane="e0_53_0" slope="0.00"/>
        <vehicle id="ev_4" x="1156.65" y="842.53" angle="235.92" type="ev_type" speed="13.05" pos="73.72" lane="e0_40_0" slope="0.00"/>
    </timestep>
    <timestep time="29.00">
        <vehicle id="ev_0" x="1572.97" y="1009.98" angle="70.59" type="ev_type" speed="13.44" pos="353.67" lane="e0_15_0" slope="0.00"/>
        <vehicle id="ev_1" x="1262.69" y="625.74" angle="173.02" type="ev_type" speed="12.95" pos="264.49" lane="e0_2_0" slope="0.00"/>
        <vehicle id="ev_2" x="1044.71" y="1018.05" angle="303.69" type="ev_type" speed="13.47" pos="216.69" lane="e0_11_0" slope="0.00"/>
        <vehicle id="ev_3" x="1080.53" y="837.99" angle="249.97" type="ev_type" speed="12.73" pos="150.31" lane="e0_53_0" slope="0.00"/>
        <vehicle id="ev_4" x="1146.19" y="835.46" angle="235.92" type="ev_type" speed="12.77" pos="86.48" lane="e0_40_0" slope="0.00"/>
    </timestep>
    <timestep time="30.00">
        <vehicle id="ev_0" x="1585.26" y="1014.31" angle="70.59" type="ev_type" speed="13.15" pos="366.82" lane="e0_15_0" slope="0.00"/>
        <vehicle id="ev_1" x="1264.12" y="614.08" angle="173.02" type="ev_type" speed="12.09" pos="276.58" lane="e0_2_0" slope="0.00"/>
        <vehicle id="ev_2" x="1033.98" y="1025.20" angle="303.69" type="ev_type" speed="13.00" pos="229.69" lane="e0_11_0" slope="0.00"/>
        <vehicle id="ev_3" x="1068.85" y="833.73" angle="249.97" type="ev_type" speed="13.05" pos="163.36" lane="e0_53_0" slope="0.00"/>
        <vehicle id="ev_4" x="1135.73" y="828.38" angle="235.92" type="ev_type" speed="12.78" pos="99.26" lane="e0_40_0" slope="0.00"/>
    </timestep>
    <timestep time="31.00">
        <vehicle id="ev_0" x="1598.08" y="1018.83" angle="70.59" type="ev_type" speed="13.73" pos="380.55" lane="e0_15_0" slope="0.00"/>
        <vehicle id="ev_1" x="1265.66" y="601.53" angle="173.02" type="ev_type" speed="13.03" pos="289.61" lane="e0_2_0" slope="0.00"/>
        <vehicle id="ev_2" x="1022.58" y="1032.80" angle="303.69" type="ev_type" speed="13.83" pos="243.52" lane="e0_11_0" slope="0.00"/>
        <vehicle id="ev_3" x="1057.31" y="829.53" angle="249.97" type="ev_type" speed="12.89" pos="176.25" lane="e0_53_0" slope="0.00"/>
        <vehicle id="ev_4" x="1125.21" y="821.26" angle="235.92" type="ev_type" speed="12.84" pos="112.11" lane="e0_40_0" slope="0.00"/>
    </timestep>
    <timestep time="32.00">
        <vehicle id="ev_0" x="1610.07" y="1023.05" angle="70.59" type="ev_type" speed="12.84" pos="393.39" lane="e0_15_0" slope="0.00"/>
        <vehicle id="ev_1" x="1267.13" y="589.52" angle="173.02" type="ev_type" speed="12.46" pos="302.08" lane="e0_2_0" slope="0.00"/>
        <vehicle id="ev_2" x="1011.67" y="1040.08" angle="303.69" type="ev_type" speed="13.22" pos="256.74" lane="e0_11_0" slope="0.00"/>
        <vehicle id="ev_3" x="1045.94" y="825.38" angle="249.97" type="ev_type" speed="12.71" pos="188.96" lane="e0_53_0" slope="0.00"/>
        <vehicle id="ev_4" x="1114.00" y="813.67" angle="235.92" type="ev_type" speed="13.69" pos="125.80" lane="e0_40_0" slope="0.00"/>
    </timestep>
    <timestep time="33.00">
        <vehicle id="ev_0" x="1622.58" y="1027.46" angle="70.59" type="ev_type" speed="13.39" pos="406.79" lane="e0_15_0" slope="0.00"/>
        <vehicle id="ev_1" x="1268.66" y="577.03" angle="173.02" type="ev_type" speed="12.97" pos="315.05" lane="e0_2_0" slope="0.00"/>
        <vehicle id="ev_2" x="1000.54" y="1047.49" angle="303.69" type="ev_type" speed="13.49" pos="270.23" lane="e0_11_0" slope="0.00"/>
        <vehicle id="ev_3" x="1033.54" y="820.86" angle="249.97" type="ev_type" speed="13.85" pos="202.81" lane="e0_53_0" slope="0.00"/>
        <vehicle id="ev_4" x="1102.99" y="806.22" angle="235.92" type="ev_type" speed="13.45" pos="139.24" lane="e0_40_0" slope="0.00"/>
    </timestep>
    <timestep time="34.00">
        <vehicle id="ev_0" x="1634.54" y="1031.67" angle="70.59" type="ev_type" speed="12.80" pos="419.59" lane="e0_15_0" slope="0.00"/>
        <vehicle id="ev_1" x="1270.15" y="564.86" angle="173.02" type="ev_type" speed="12.63" pos="327.68" lane="e0_2_0" slope="0.00"/>
        <vehicle id="ev_2" x="989.77" y="1054.68" angle="303.69" type="ev_type" speed="13.07" pos="283.30" lane="e0_11_0" slope="0.00"/>
        <vehicle id="ev_3" x="1021.90" y="816.62" angle="249.97" type="ev_type" speed="13.00" pos="215.81" lane="e0_53_0" slope="0.00"/>
        <vehicle id="ev_4" x="1092.07" y="798.84" angle="235.92" type="ev_type" speed="13.32" pos="152.57" lane="e0_40_0" slope="0.00"/>
    </timestep>
    <timestep time="35.00">
        <vehicle id="ev_0" x="1646.34" y="1035.83" angle="70.59" type="ev_type" speed="12.64" pos="432.23" lane="e0_15_0" slope="0.00"/>
        <vehicle id="ev_1" x="1271.36" y="554.95" angle="173.02" type="ev_type" speed="10.29" pos="337.96" lane="e0_2_0" slope="0.00"/>
        <vehicle id="ev_2" x="979.32" y="1061.65" angle="303.69" type="ev_type" speed="12.67" pos="295.97" lane="e0_11_0" slope="0.00"/>
        <vehicle id="ev_3" x="1009.49" y="812.10" angle="249.97" type="ev_type" speed="13.86" pos="229.67" lane="e0_53_0" slope="0.00"/>
        <vehicle id="ev_4" x="1081.38" y="791.61" angle="235.92" type="ev_type" speed="13.06" pos="165.63" lane="e0_40_0" slope="0.00"/>
    </timestep>
    <timestep time="36.00">
        <vehicle id="ev_0" x="1658.69" y="1040.19" angle="70.59" type="ev_type" speed="13.23" pos="445.46" lane="e0_15_0" slope="0.00"/>
        <vehicle id="ev_1" x="1272.18" y="548.27" angle="173.02" type="ev_type" speed="6.93" pos="344.90" lane="e0_2_0" slope="0.00"/>
        <vehicle id="ev_2" x="968.74" y="1068.69" angle="303.69" type="ev_type" speed="12.82" pos="308.79" lane="e0_11_0" slope="0.00"/>
        <vehicle id="ev_3" x="997.49" y="807.72" angle="249.97" type="ev_type" speed="13.41" pos="243.08" lane="e0_53_0" slope="0.00"/>
        <vehicle id="ev_4" x="1070.04" y="783.94" angle="235.92" type="ev_type" speed="13.85" pos="179.48" lane="e0_40_0" slope="0.00"/>
    </timestep>
    <timestep time="37.00">
        <vehicle id="ev_0" x="1671.57" y="1044.73" angle="70.59" type="ev_type" speed="13.79" pos="459.24" lane="e0_15_0" slope="0.00"/>
        <vehicle id="ev_1" x="1272.46" y="545.92" angle="173.02" type="ev_type" speed="2.43" pos="347.33" lane="e0_2_0" slope="0.00"/>
        <vehicle id="ev_2" x="958.24" y="1075.70" angle="303.69" type="ev_type" speed="12.74" pos="321.52" lane="e0_11_0" slope="0.00"/>
        <vehicle id="ev_3" x="985.49" y="803.34" angle="249.97" type="ev_type" speed="13.41" pos="256.49" lane="e0_53_0" slope="0.00"/>
        <vehicle id="ev_4" x="1059.48" y="776.79" angle="235.92" type="ev_type" speed="12.90" pos="192.37" lane="e0_40_0" slope="0.00"/>
    </timestep>
    <timestep time="38.00">
        <vehicle id="ev_0" x="1684.31" y="1049.22" angle="70.59" type="ev_type" speed="13.64" pos="472.88" lane="e0_15_0" slope="0.00"/>
        <vehicle id="ev_1" x="1272.54" y="545.29" angle="173.02" type="ev_type" speed="0.66" pos="347.99" lane="e0_2_0" slope="0.00"/>
        <vehicle id="ev_2" x="947.21" y="1083.05" angle="303.69" type="ev_type" speed="13.37" pos="334.90" lane="e0_11_0" slope="0.00"/>
        <vehicle id="ev_3" x="973.39" y="798.93" angle="249.97" type="ev_type" speed="13.52" pos="270.00" lane="e0_53_0" slope="0.00"/>
        <vehicle id="ev_4" x="1048.78" y="769.56" angle="235.92" type="ev_type" speed="13.05" pos="205.43" lane="e0_40_0" slope="0.00"/>
    </timestep>
    <timestep time="39.00">
        <vehicle id="ev_0" x="1696.39" y="1053.47" angle="70.59" type="ev_type" speed="12.93" pos="485.82" lane="e0_15_0" slope="0.00"/>
        <vehicle id="ev_1" x="1272.55" y="545.25" angle="173.02" type="ev_type" speed="0.04" pos="348.03" lane="e0_2_0" slope="0.00"/>
        <vehicle id="ev_2" x="936.33" y="1090.30" angle="303.69" type="ev_type" speed="13.18" pos="348.08" lane="e0_11_0" slope="0.00"/>
        <vehicle id="ev_3" x="961.41" y="794.57" angle="249.97" type="ev_type" speed="13.38" pos="283.39" lane="e0_53_0" slope="0.00"/>
        <vehicle id="ev_4" x="1037.80" y="762.13" angle="235.92" type="ev_type" speed="13.41" pos="218.84" lane="e0_40_0" slope="0.00"/>
    </timestep>
    <timestep time="40.00">
        <vehicle id="ev_0" x="1708.33" y="1057.68" angle="70.59" type="ev_type" speed="12.79" pos="498.61" lane="e0_15_0" slope="0.00"/>
        <vehicle id="ev_1" x="1272.55" y="545.25" angle="173.02" type="ev_type" speed="0.00" pos="348.03" lane="e0_2_0" slope="0.00"/>
        <vehicle id="ev_2" x="925.13" y="1097.77" angle="303.69" type="ev_type" speed="13.58" pos="361.66" lane="e0_11_0" slope="0.00"/>
        <vehicle id="ev_3" x="949.80" y="790.33" angle="249.97" type="ev_type" speed="12.97" pos="296.36" lane="e0_53_0" slope="0.00"/>
        <vehicle id="ev_4" x="1027.23" y="754.98" angle="235.92" type="ev_type" speed="12.90" pos="231.74" lane="e0_40_0" slope="0.00"/>
    </timestep>
    <timestep time="41.00">
        <vehicle id="ev_0" x="1720.51" y="1061.97" angle="70.59" type="ev_type" speed="13.04" pos="511.65" lane="e0_15_0" slope="0.00"/>
        <vehicle id="ev_1" x="1272.55" y="545.25" angle="173.02" type="ev_type" speed="0.00" pos="348.03" lane="e0_2_0" slope="0.00"/>
        <vehicle id="ev_2" x="913.71" y="1105.38" angle="303.69" type="ev_type" speed="13.85" pos="375.51" lane="e0_11_0" slope="0.00"/>
        <vehicle id="ev_3" x="938.35" y="786.16" angle="249.97" type="ev_type" speed="12.79" pos="309.14" lane="e0_53_0" slope="0.00"/>
        <vehicle id="ev_4" x="1016.38" y="747.64" angle="235.92" type="ev_type" speed="13.25" pos="244.99" lane="e0_40_0" slope="0.00"/>
    </timestep>
    <timestep time="42.00">
        <vehicle id="ev_0" x="1732.32" y="1066.14" angle="70.59" type="ev_type" speed="12.65" pos="524.30" lane="e0_15_0" slope="0.00"/>
        <vehicle id="ev_1" x="1272.55" y="545.25" angle="173.02" type="ev_type" speed="0.00" pos="348.03" lane="e0_2_0" slope="0.00"/>
        <vehicle id="ev_2" x="902.58" y="1112.80" angle="303.69" type="ev_type" speed="13.50" pos="389.01" lane="e0_11_0" slope="0.00"/>
        <vehicle id="ev_3" x="928.80" y="782.68" angle="249.97" type="ev_type" speed="10.67" pos="319.81" lane="e0_53_0" slope="0.00"/>
        <vehicle id="ev_4" x="1006.05" y="740.65" angle="235.92" type="ev_type" speed="12.62" pos="257.61" lane="e0_40_0" slope="0.00"/>
    </timestep>
    <timestep time="43.00">
        <vehicle id="ev_0" x="1744.44" y="1070.41" angle="70.59" type="ev_type" speed="12.97" pos="537.27" lane="e0_15_0" slope="0.00"/>
        <vehicle id="ev_1" x="1272.55" y="545.25" angle="173.02" type="ev_type" speed="0.00" pos="348.03" lane="e0_2_0" slope="0.00"/>
        <vehicle id="ev_2" x="891.94" y="1119.90" angle="303.69" type="ev_type" speed="12.90" pos="401.90" lane="e0_11_0" slope="0.00"/>
        <vehicle id="ev_3" x="922.48" y="780.38" angle="249.97" type="ev_type" speed="7.06" pos="326.87" lane="e0_53_0" slope="0.00"/>
        <vehicle id="ev_4" x="995.63" y="733.60" angle="235.92" type="ev_type" speed="12.72" pos="270.34" lane="e0_40_0" slope="0.00"/>
    </timestep>
    <timestep time="44.00">
        <vehicle id="ev_0" x="1756.65" y="1074.71" angle="70.59" type="ev_type" speed="13.08" pos="550.35" lane="e0_15_0" slope="0.00"/>
        <vehicle id="ev_1" x="1272.55" y="545.25" angle="173.02" type="ev_type" speed="0.00" pos="348.03" lane="e0_2_0" slope="0.00"/>
        <vehicle id="ev_2" x="880.65" y="1127.42" angle="303.69" type="ev_type" speed="13.68" pos="415.59" lane="e0_11_0" slope="0.00"/>
        <vehicle id="ev_3" x="920.19" y="779.54" angle="249.97" type="ev_type" speed="2.56" pos="329.44" lane="e0_53_0" slope="0.00"/>
        <vehicle id="ev_4" x="985.08" y="726.46" angle="235.92" type="ev_type" speed="12.88" pos="283.22" lane="e0_40_0" slope="0.00"/>
    </timestep>
    <timestep time="45.00">
        <vehicle id="ev_0" x="1769.44" y="1079.22" angle="70.59" type="ev_type" speed="13.69" pos="564.05" lane="e0_15_0" slope="0.00"/>
        <vehicle id="ev_1" x="1272.55" y="545.25" angle="173.02" type="ev_type" speed="0.00" pos="348.03" lane="e0_2_0" slope="0.00"/>
        <vehicle id="ev_2" x="870.22" y="1134.37" angle="303.69" type="ev_type" speed="12.65" pos="428.23" lane="e0_11_0" slope="0.00"/>
        <vehicle id="ev_3" x="919.53" y="779.30" angle="249.97" type="ev_type" speed="0.74" pos="330.18" lane="e0_53_0" slope="0.00"/>
        <vehicle id="ev_4" x="974.16" y="719.07" angle="235.92" type="ev_type" speed="13.33" pos="296.55" lane="e0_40_0" slope="0.00"/>
    </timestep>
    <timestep time="46.00">
        <vehicle id="ev_0" x="1781.68" y="1083.53" angle="70.59" type="ev_type" speed="13.10" pos="577.15" lane="e0_15_0" slope="0.00"/>
        <vehicle id="ev_1" x="1272.55" y="545.25" angle="173.02" type="ev_type" speed="0.00" pos="348.03" lane="e0_2_0" slope="0.00"/>
        <vehicle id="ev_2" x="858.80" y="1141.99" angle="303.69" type="ev_type" speed="13.85" pos="442.09" lane="e0_11_0" slope="0.00"/>
        <vehicle id="ev_3" x="919.37" y="779.24" angle="249.97" type="ev_type" speed="0.17" pos="330.34" lane="e0_53_0" slope="0.00"/>
        <vehicle id="ev_4" x="963.29" y="711.72" angle="235.92" type="ev_type" speed="13.27" pos="309.82" lane="e0_40_0" slope="0.00"/>
    </timestep>
    <timestep time="47.00">
        <vehicle id="ev_0" x="1794.04" y="1087.89" angle="70.59" type="ev_type" speed="13.24" pos="590.39" lane="e0_15_0" slope="0.00"/>
        <vehicle id="ev_1" x="1272.55" y="545.25" angle="173.02" type="ev_type" speed="0.00" pos="348.03" lane="e0_2_0" slope="0.00"/>
        <vehicle id="ev_2" x="848.08" y="1149.14" angle="303.69" type="ev_type" speed="13.00" pos="455.08" lane="e0_11_0" slope="0.00"/>
        <vehicle id="ev_3" x="919.37" y="779.24" angle="249.97" type="ev_type" speed="0.01" pos="330.35" lane="e0_53_0" slope="0.00"/>
        <vehicle id="ev_4" x="952.31" y="704.30" angle="235.92" type="ev_type" speed="13.41" pos="323.22" lane="e0_40_0" slope="0.00"/>
    </timestep>
    <timestep time="48.00">
        <vehicle id="ev_0" x="1806.11" y="1092.14" angle="70.59" type="ev_type" speed="12.92" pos="603.31" lane="e0_15_0" slope="0.00"/>
        <vehicle id="ev_1" x="1272.55" y="545.25" angle="173.02" type="ev_type" speed="0.00" pos="348.03" lane="e0_2_0" slope="0.00"/>
        <vehicle id="ev_2" x="836.98" y="1156.54" angle="303.69" type="ev_type" speed="13.46" pos="468.54" lane="e0_11_0" slope="0.00"/>