<?xml version="1.0" encoding="UTF-8"?>

<!-- generated on 2026-04-20T19:52:00.672759-05:00 by Eclipse SUMO sumo 1.26.0
<sumoConfiguration xmlns:xsi="http://www.w3.org/2001/XMLSchema-instance" xsi:noNamespaceSchemaLocation="http://sumo.dlr.de/xsd/sumoConfiguration.xsd">

    <input>
        <net-file value="sumo_scenario\network.net.xml"/>
        <route-files value="sumo_scenario\vehicles.rou.xml"/>
        <additional-files value="sumo_scenario\additional.add.xml"/>
    </input>

    <output>
        <emission-output value="sumo_outputs\emissions.xml"/>
        <battery-output value="sumo_outputs\battery.xml"/>
        <chargingstations-output value="sumo_outputs\chargingstations.xml"/>
        <fcd-output value="sumo_outputs\fcd.xml"/>
        <tripinfo-output value="sumo_outputs\tripinfo.xml"/>
        <vehroute-output value="sumo_outputs\vehroutes.xml"/>
    </output>

    <time>
        <begin value="0"/>
        <end value="86400"/>
        <step-length value="1.0"/>
    </time>

    <processing>
        <collision.action value="warn"/>
        <time-to-teleport value="-1"/>
    </processing>

    <report>
        <no-warnings value="true"/>
    </report>

    <battery>
        <device.battery.probability value="1.0"/>
    </battery>

    <traci_server>
        <remote-port value="56225"/>
    </traci_server>

</sumoConfiguration>
-->

<emission-export xmlns:xsi="http://www.w3.org/2001/XMLSchema-instance" xsi:noNamespaceSchemaLocation="http://sumo.dlr.de/xsd/emission_file.xsd">
    <timestep time="0.00">
        <vehicle id="ev_0" eclass="Energy/default" CO2="0.00" CO="0.00" HC="0.00" NOx="0.00" PMx="0.00" fuel="0.00" electricity="0.03" noise="55.94" route="route_0" type="ev_type" waiting="0.00" lane="e0_58_0" pos="4.60" speed="0.00" angle="299.51" x="1577.50" y="921.92"/>
    </timestep>
    <timestep time="1.00">
        <vehicle id="ev_0" eclass="Energy/default" CO2="0.00" CO="0.00" HC="0.00" NOx="0.00" PMx="0.00" fuel="0.00" electricity="1.49" noise="67.87" route="route_0" type="ev_type" waiting="0.00" lane="e0_58_0" pos="7.09" speed="2.49" angle="299.51" x="1575.38" y="923.12"/>
    </timestep>
    <timestep time="2.00">
        <vehicle id="ev_0" eclass="Energy/default" CO2="0.00" CO="0.00" HC="0.00" NOx="0.00" PMx="0.00" fuel="0.00" electricity="3.01" noise="65.89" route="route_0" type="ev_type" waiting="0.00" lane="e0_58_0" pos="11.45" speed="4.36" angle="299.51" x="1571.68" y="925.22"/>
    </timestep>
    <timestep time="3.00">
        <vehicle id="ev_0" eclass="Energy/default" CO2="0.00" CO="0.00" HC="0.00" NOx="0.00" PMx="0.00" fuel="0.00" electricity="6.63" noise="69.99" route="route_0" type="ev_type" waiting="0.00" lane="e0_58_0" pos="18.35" speed="6.90" angle="299.51" x="1565.82" y="928.54"/>
    </timestep>
    <timestep time="4.00">
        <vehicle id="ev_0" eclass="Energy/default" CO2="0.00" CO="0.00" HC="0.00" NOx="0.00" PMx="0.00" fuel="0.00" electricity="8.27" noise="69.57" route="route_0" type="ev_type" waiting="0.00" lane="e0_58_0" pos="27.47" speed="9.12" angle="299.51" x="1558.07" y="932.92"/>
    </timestep>
    <timestep time="5.00">
        <vehicle id="ev_0" eclass="Energy/default" CO2="0.00" CO="0.00" HC="0.00" NOx="0.00" PMx="0.00" fuel="0.00" electricity="11.74" noise="71.67" route="route_0" type="ev_type" waiting="0.00" lane="e0_58_0" pos="39.03" speed="11.55" angle="299.51" x="1548.25" y="938.48"/>
        <vehicle id="ev_1" eclass="Energy/default" CO2="0.00" CO="0.00" HC="0.00" NOx="0.00" PMx="0.00" fuel="0.00" electricity="0.03" noise="55.94" route="route_1" type="ev_type" waiting="0.00" lane="e0_42_0" pos="4.60" speed="0.00" angle="6.51" x="1614.66" y="922.20"/>
    </timestep>
    <timestep time="6.00">
        <vehicle id="ev_0" eclass="Energy/default" CO2="0.00" CO="0.00" HC="0.00" NOx="0.00" PMx="0.00" fuel="0.00" electricity="11.82" noise="70.81" route="route_0" type="ev_type" waiting="0.00" lane="e0_58_0" pos="52.56" speed="13.53" angle="299.51" x="1536.75" y="944.99"/>
        <vehicle id="ev_1" eclass="Energy/default" CO2="0.00" CO="0.00" HC="0.00" NOx="0.00" PMx="0.00" fuel="0.00" electricity="0.54" noise="62.80" route="route_1" type="ev_type" waiting="0.00" lane="e0_42_0" pos="6.03" speed="1.43" angle="6.51" x="1614.81" y="923.53"/>
    </timestep>
    <timestep time="7.00">
        <vehicle id="ev_0" eclass="Energy/default" CO2="0.00" CO="0.00" HC="0.00" NOx="0.00" PMx="0.00" fuel="0.00" electricity="-2.50" noise="62.58" route="route_0" type="ev_type" waiting="0.00" lane="e0_58_0" pos="65.48" speed="12.92" angle="299.51" x="1525.78" y="951.20"/>
        <vehicle id="ev_1" eclass="Energy/default" CO2="0.00" CO="0.00" HC="0.00" NOx="0.00" PMx="0.00" fuel="0.00" electricity="3.31" noise="68.97" route="route_1" type="ev_type" waiting="0.00" lane="e0_42_0" pos="10.07" speed="4.03" angle="6.51" x="1615.24" y="927.29"/>
    </timestep>
    <timestep time="8.00">
        <vehicle id="ev_0" eclass="Energy/default" CO2="0.00" CO="0.00" HC="0.00" NOx="0.00" PMx="0.00" fuel="0.00" electricity="6.43" noise="67.14" route="route_0" type="ev_type" waiting="0.00" lane="e0_58_0" pos="79.32" speed="13.84" angle="299.51" x="1514.02" y="957.86"/>
        <vehicle id="ev_1" eclass="Energy/default" CO2="0.00" CO="0.00" HC="0.00" NOx="0.00" PMx="0.00" fuel="0.00" electricity="5.18" noise="68.05" route="route_1" type="ev_type" waiting="0.00" lane="e0_42_0" pos="16.27" speed="6.21" angle="6.51" x="1615.90" y="933.08"/>
    </timestep>
    <timestep time="9.00">
        <vehicle id="ev_0" eclass="Energy/default" CO2="0.00" CO="0.00" HC="0.00" NOx="0.00" PMx="0.00" fuel="0.00" electricity="-0.77" noise="63.66" route="route_0" type="ev_type" waiting="0.00" lane="e0_58_0" pos="92.86" speed="13.54" angle="299.51" x="1502.51" y="964.37"/>
        <vehicle id="ev_1" eclass="Energy/default" CO2="0.00" CO="0.00" HC="0.00" NOx="0.00" PMx="0.00" fuel="0.00" electricity="8.35" noise="70.25" route="route_1" type="ev_type" waiting="0.00" lane="e0_42_0" pos="24.91" speed="8.63" angle="6.51" x="1616.82" y="941.13"/>
    </timestep>
    <timestep time="10.00">
        <vehicle id="ev_0" eclass="Energy/default" CO2="0.00" CO="0.00" HC="0.00" NOx="0.00" PMx="0.00" fuel="0.00" electricity="3.06" noise="65.42" route="route_0" type="ev_type" waiting="0.00" lane="e0_58_0" pos="106.74" speed="13.88" angle="299.51" x="1490.72" y="971.04"/>
        <vehicle id="ev_1" eclass="Energy/default" CO2="0.00" CO="0.00" HC="0.00" NOx="0.00" PMx="0.00" fuel="0.00" electricity="9.24" noise="69.59" route="route_1" type="ev_type" waiting="0.00" lane="e0_42_0" pos="35.57" speed="10.67" angle="6.51" x="1617.95" y="951.07"/>
        <vehicle id="ev_2" eclass="Energy/default" CO2="0.00" CO="0.00" HC="0.00" NOx="0.00" PMx="0.00" fuel="0.00" electricity="0.03" noise="55.94" route="route_2" type="ev_type" waiting="0.00" lane="e0_47_0" pos="4.60" speed="0.00" angle="305.50" x="1579.72" y="925.35"/>
    </timestep>
    <timestep time="11.00">
        <vehicle id="ev_0" eclass="Energy/default" CO2="0.00" CO="0.00" HC="0.00" NOx="0.00" PMx="0.00" fuel="0.00" electricity="-5.23" noise="61.71" route="route_0" type="ev_type" waiting="0.00" lane="e0_58_0" pos="119.52" speed="12.77" angle="299.51" x="1479.86" y="977.19"/>
        <vehicle id="ev_1" eclass="Energy/default" CO2="0.00" CO="0.00" HC="0.00" NOx="0.00" PMx="0.00" fuel="0.00" electricity="12.11" noise="71.28" route="route_1" type="ev_type" waiting="0.00" lane="e0_42_0" pos="48.43" speed="12.85" angle="6.51" x="1619.32" y="963.05"/>
        <vehicle id="ev_2" eclass="Energy/default" CO2="0.00" CO="0.00" HC="0.00" NOx="0.00" PMx="0.00" fuel="0.00" electricity="1.00" noise="65.60" route="route_2" type="ev_type" waiting="0.00" lane="e0_47_0" pos="6.62" speed="2.02" angle="305.50" x="1578.12" y="926.49"/>
    </timestep>
    <timestep time="12.00">
        <vehicle id="ev_0" eclass="Energy/default" CO2="0.00" CO="0.00" HC="0.00" NOx="0.00" PMx="0.00" fuel="0.00" electricity="1.55" noise="64.16" route="route_0" type="ev_type" waiting="0.00" lane="e0_58_0" pos="132.41" speed="12.89" angle="299.51" x="1468.91" y="983.39"/>
        <vehicle id="ev_1" eclass="Energy/default" CO2="0.00" CO="0.00" HC="0.00" NOx="0.00" PMx="0.00" fuel="0.00" electricity="-4.07" noise="61.18" route="route_1" type="ev_type" waiting="0.00" lane="e0_42_0" pos="60.34" speed="11.91" angle="6.51" x="1620.59" y="974.15"/>
        <vehicle id="ev_2" eclass="Energy/default" CO2="0.00" CO="0.00" HC="0.00" NOx="0.00" PMx="0.00" fuel="0.00" electricity="2.55" noise="65.54" route="route_2" type="ev_type" waiting="0.00" lane="e0_47_0" pos="10.47" speed="3.85" angle="305.50" x="1575.07" y="928.66"/>
    </timestep>
    <timestep time="13.00">
        <vehicle id="ev_0" eclass="Energy/default" CO2="0.00" CO="0.00" HC="0.00" NOx="0.00" PMx="0.00" fuel="0.00" electricity="1.66" noise="64.29" route="route_0" type="ev_type" waiting="0.00" lane="e0_58_0" pos="145.43" speed="13.02" angle="299.51" x="1457.85" y="989.65"/>
        <vehicle id="ev_1" eclass="Energy/default" CO2="0.00" CO="0.00" HC="0.00" NOx="0.00" PMx="0.00" fuel="0.00" electricity="0.16" noise="62.77" route="route_1" type="ev_type" waiting="0.00" lane="e0_42_0" pos="72.12" speed="11.79" angle="6.51" x="1621.84" y="985.14"/>
        <vehicle id="ev_2" eclass="Energy/default" CO2="0.00" CO="0.00" HC="0.00" NOx="0.00" PMx="0.00" fuel="0.00" electricity="5.45" noise="68.76" route="route_2" type="ev_type" waiting="0.00" lane="e0_47_0" pos="16.67" speed="6.19" angle="305.50" x="1570.18" y="932.15"/>
    </timestep>
    <timestep time="14.00">
        <vehicle id="ev_0" eclass="Energy/default" CO2="0.00" CO="0.00" HC="0.00" NOx="0.00" PMx="0.00" fuel="0.00" electricity="1.38" noise="64.21" route="route_0" type="ev_type" waiting="0.00" lane="e0_58_0" pos="158.53" speed="13.10" angle="299.51" x="1446.71" y="995.95"/>
        <vehicle id="ev_1" eclass="Energy/default" CO2="0.00" CO="0.00" HC="0.00" NOx="0.00" PMx="0.00" fuel="0.00" electricity="4.14" noise="65.30" route="route_1" type="ev_type" waiting="0.00" lane="e0_42_0" pos="84.54" speed="12.41" angle="6.51" x="1623.16" y="996.71"/>
        <vehicle id="ev_2" eclass="Energy/default" CO2="0.00" CO="0.00" HC="0.00" NOx="0.00" PMx="0.00" fuel="0.00" electricity="8.68" noise="70.68" route="route_2" type="ev_type" waiting="0.00" lane="e0_47_0" pos="25.38" speed="8.71" angle="305.50" x="1563.30" y="937.06"/>
    </timestep>
    <timestep time="15.00">
        <vehicle id="ev_0" eclass="Energy/default" CO2="0.00" CO="0.00" HC="0.00" NOx="0.00" PMx="0.00" fuel="0.00" electricity="-0.20" noise="63.42" route="route_0" type="ev_type" waiting="0.00" lane="e0_58_0" pos="171.44" speed="12.91" angle="299.51" x="1435.75" y="1002.16"/>
        <vehicle id="ev_1" eclass="Energy/default" CO2="0.00" CO="0.00" HC="0.00" NOx="0.00" PMx="0.00" fuel="0.00" electricity="-2.40" noise="61.63" route="route_1" type="ev_type" waiting="0.00" lane="e0_42_0" pos="96.32" speed="11.78" angle="6.51" x="1624.41" y="1007.69"/>
        <vehicle id="ev_2" eclass="Energy/default" CO2="0.00" CO="0.00" HC="0.00" NOx="0.00" PMx="0.00" fuel="0.00" electricity="7.66" noise="68.03" route="route_2" type="ev_type" waiting="0.00" lane="e0_47_0" pos="35.77" speed="10.40" angle="305.50" x="1555.08" y="942.92"/>
        <vehicle id="ev_3" eclass="Energy/default" CO2="0.00" CO="0.00" HC="0.00" NOx="0.00" PMx="0.00" fuel="0.00" electricity="0.03" noise="55.94" route="route_3" type="ev_type" waiting="0.00" lane="e0_38_0" pos="4.60" speed="0.00" angle="90.00" x="1639.98" y="899.71"/>
    </timestep>
    <timestep time="16.00">
        <vehicle id="ev_0" eclass="Energy/default" CO2="0.00" CO="0.00" HC="0.00" NOx="0.00" PMx="0.00" fuel="0.00" electricity="6.43" noise="67.14" route="route_0" type="ev_type" waiting="0.00" lane="e0_58_0" pos="185.28" speed="13.83" angle="299.51" x="1423.99" y="1008.81"/>
        <vehicle id="ev_1" eclass="Energy/default" CO2="0.00" CO="0.00" HC="0.00" NOx="0.00" PMx="0.00" fuel="0.00" electricity="6.70" noise="67.08" route="route_1" type="ev_type" waiting="0.00" lane="e0_42_0" pos="109.18" speed="12.86" angle="6.51" x="1625.78" y="1019.68"/>
        <vehicle id="ev_2" eclass="Energy/default" CO2="0.00" CO="0.00" HC="0.00" NOx="0.00" PMx="0.00" fuel="0.00" electricity="12.74" noise="71.89" route="route_2" type="ev_type" waiting="0.00" lane="e0_47_0" pos="48.52" speed="12.74" angle="305.50" x="1545.01" y="950.10"/>
        <vehicle id="ev_3" eclass="Energy/default" CO2="0.00" CO="0.00" HC="0.00" NOx="0.00" PMx="0.00" fuel="0.00" electricity="1.01" noise="65.65" route="route_3" type="ev_type" waiting="0.00" lane="e0_38_0" pos="6.63" speed="2.03" angle="90.00" x="1641.94" y="899.71"/>
    </timestep>
    <timestep time="17.00">
        <vehicle id="ev_0" eclass="Energy/default" CO2="0.00" CO="0.00" HC="0.00" NOx="0.00" PMx="0.00" fuel="0.00" electricity="-0.70" noise="63.69" route="route_0" type="ev_type" waiting="0.00" lane="e0_58_0" pos="198.82" speed="13.55" angle="299.51" x="1412.48" y="1015.33"/>
        <vehicle id="ev_1" eclass="Energy/default" CO2="0.00" CO="0.00" HC="0.00" NOx="0.00" PMx="0.00" fuel="0.00" electricity="-1.63" noise="62.45" route="route_1" type="ev_type" waiting="0.00" lane="e0_42_0" pos="121.58" speed="12.39" angle="6.51" x="1627.10" y="1031.23"/>
        <vehicle id="ev_2" eclass="Energy/default" CO2="0.00" CO="0.00" HC="0.00" NOx="0.00" PMx="0.00" fuel="0.00" electricity="2.40" noise="64.63" route="route_2" type="ev_type" waiting="0.00" lane="e0_47_0" pos="61.53" speed="13.01" angle="305.50" x="1534.73" y="957.43"/>
        <vehicle id="ev_3" eclass="Energy/default" CO2="0.00" CO="0.00" HC="0.00" NOx="0.00" PMx="0.00" fuel="0.00" electricity="2.77" noise="66.13" route="route_3" type="ev_type" waiting="0.00" lane="e0_38_0" pos="10.61" speed="3.98" angle="90.00" x="1645.81" y="899.71"/>
    </timestep>
    <timestep time="18.00">
        <vehicle id="ev_0" eclass="Energy/default" CO2="0.00" CO="0.00" HC="0.00" NOx="0.00" PMx="0.00" fuel="0.00" electricity="-0.96" noise="63.35" route="route_0" type="ev_type" waiting="0.00" lane="e0_58_0" pos="212.03" speed="13.21" angle="299.51" x="1401.26" y="1021.68"/>
        <vehicle id="ev_1" eclass="Energy/default" CO2="0.00" CO="0.00" HC="0.00" NOx="0.00" PMx="0.00" fuel="0.00" electricity="0.77" noise="63.47" route="route_1" type="ev_type" waiting="0.00" lane="e0_42_0" pos="133.96" speed="12.38" angle="6.51" x="1628.41" y="1042.77"/>
        <vehicle id="ev_2" eclass="Energy/default" CO2="0.00" CO="0.00" HC="0.00" NOx="0.00" PMx="0.00" fuel="0.00" electricity="0.37" noise="63.66" route="route_2" type="ev_type" waiting="0.00" lane="e0_47_0" pos="74.44" speed="12.92" angle="305.50" x="1524.53" y="964.71"/>
        <vehicle id="ev_3" eclass="Energy/default" CO2="0.00" CO="0.00" HC="0.00" NOx="0.00" PMx="0.00" fuel="0.00" electricity="6.22" noise="69.87" route="route_3" type="ev_type" waiting="0.00" lane="e0_38_0" pos="17.16" speed="6.54" angle="90.00" x="1652.15" y="899.71"/>
    </timestep>
    <timestep time="19.00">
        <vehicle id="ev_0" eclass="Energy/default" CO2="0.00" CO="0.00" HC="0.00" NOx="0.00" PMx="0.00" fuel="0.00" electricity="3.37" noise="65.42" route="route_0" type="ev_type" waiting="0.00" lane="e0_58_0" pos="225.65" speed="13.62" angle="299.51" x="1389.69" y="1028.23"/>
        <vehicle id="ev_1" eclass="Energy/default" CO2="0.00" CO="0.00" HC="0.00" NOx="0.00" PMx="0.00" fuel="0.00" electricity="-0.15" noise="62.92" route="route_1" type="ev_type" waiting="0.00" lane="e0_42_0" pos="146.16" speed="12.20" angle="6.51" x="1629.71" y="1054.14"/>
        <vehicle id="ev_2" eclass="Energy/default" CO2="0.00" CO="0.00" HC="0.00" NOx="0.00" PMx="0.00" fuel="0.00" electricity="5.94" noise="66.83" route="route_2" type="ev_type" waiting="0.00" lane="e0_47_0" pos="88.20" speed="13.76" angle="305.50" x="1513.65" y="972.47"/>
        <vehicle id="ev_3" eclass="Energy/default" CO2="0.00" CO="0.00" HC="0.00" NOx="0.00" PMx="0.00" fuel="0.00" electricity="6.04" noise="67.13" route="route_3" type="ev_type" waiting="0.00" lane="e0_38_0" pos="25.43" speed="8.27" angle="90.00" x="1660.16" y="899.71"/>
    </timestep>
    <timestep time="20.00">
        <vehicle id="ev_0" eclass="Energy/default" CO2="0.00" CO="0.00" HC="0.00" NOx="0.00" PMx="0.00" fuel="0.00" electricity="0.88" noise="64.32" route="route_0" type="ev_type" waiting="0.00" lane="e0_58_0" pos="239.25" speed="13.60" angle="299.51" x="1378.13" y="1034.77"/>
        <vehicle id="ev_1" eclass="Energy/default" CO2="0.00" CO="0.00" HC="0.00" NOx="0.00" PMx="0.00" fuel="0.00" electricity="0.34" noise="63.08" route="route_1" type="ev_type" waiting="0.00" lane="e0_42_0" pos="158.27" speed="12.11" angle="6.51" x="1631.00" y="1065.43"/>
        <vehicle id="ev_2" eclass="Energy/default" CO2="0.00" CO="0.00" HC="0.00" NOx="0.00" PMx="0.00" fuel="0.00" electricity="-3.94" noise="62.14" route="route_2" type="ev_type" waiting="0.00" lane="e0_47_0" pos="101.09" speed="12.89" angle="305.50" x="1503.47" y="979.73"/>
        <vehicle id="ev_3" eclass="Energy/default" CO2="0.00" CO="0.00" HC="0.00" NOx="0.00" PMx="0.00" fuel="0.00" electricity="6.15" noise="66.61" route="route_3" type="ev_type" waiting="0.00" lane="e0_38_0" pos="35.12" speed="9.69" angle="90.00" x="1669.56" y="899.71"/>
        <vehicle id="ev_4" eclass="Energy/default" CO2="0.00" CO="0.00" HC="0.00" NOx="0.00" PMx="0.00" fuel="0.00" electricity="0.03" noise="55.94" route="route_4" type="ev_type" waiting="0.00" lane="e0_35_0" pos="4.60" speed="0.00" angle="98.71" x="1639.51" y="895.28"/>
    </timestep>
    <timestep time="21.00">
        <vehicle id="ev_0" eclass="Energy/default" CO2="0.00" CO="0.00" HC="0.00" NOx="0.00" PMx="0.00" fuel="0.00" electricity="-2.07" noise="62.84" route="route_0" type="ev_type" waiting="0.00" lane="e0_58_0" pos="252.31" speed="13.06" angle="299.51" x="1367.04" y="1041.05"/>
        <vehicle id="ev_1" eclass="Energy/default" CO2="0.00" CO="0.00" HC="0.00" NOx="0.00" PMx="0.00" fuel="0.00" electricity="5.76" noise="66.50" route="route_1" type="ev_type" waiting="0.00" lane="e0_42_0" pos="171.26" speed="13.00" angle="6.51" x="1632.38" y="1077.55"/>
        <vehicle id="ev_2" eclass="Energy/default" CO2="0.00" CO="0.00" HC="0.00" NOx="0.00" PMx="0.00" fuel="0.00" electricity="6.68" noise="67.29" route="route_2" type="ev_type" waiting="0.00" lane="e0_47_0" pos="114.95" speed="13.86" angle="305.50" x="1492.52" y="987.54"/>
        <vehicle id="ev_3" eclass="Energy/default" CO2="0.00" CO="0.00" HC="0.00" NOx="0.00" PMx="0.00" fuel="0.00" electricity="8.46" noise="68.51" route="route_3" type="ev_type" waiting="0.00" lane="e0_38_0" pos="46.49" speed="11.37" angle="90.00" x="1680.58" y="899.71"/>
        <vehicle id="ev_4" eclass="Energy/default" CO2="0.00" CO="0.00" HC="0.00" NOx="0.00" PMx="0.00" fuel="0.00" electricity="1.32" noise="67.14" route="route_4" type="ev_type" waiting="0.00" lane="e0_35_0" pos="6.94" speed="2.34" angle="98.71" x="1641.78" y="894.93"/>
    </timestep>
    <timestep time="22.00">
        <vehicle id="ev_0" eclass="Energy/default" CO2="0.00" CO="0.00" HC="0.00" NOx="0.00" PMx="0.00" fuel="0.00" electricity="2.77" noise="65.01" route="route_0" type="ev_type" waiting="0.00" lane="e0_58_0" pos="265.69" speed="13.38" angle="299.51" x="1355.67" y="1047.48"/>
        <vehicle id="ev_1" eclass="Energy/default" CO2="0.00" CO="0.00" HC="0.00" NOx="0.00" PMx="0.00" fuel="0.00" electricity="-0.69" noise="63.07" route="route_1" type="ev_type" waiting="0.00" lane="e0_42_0" pos="183.97" speed="12.71" angle="6.51" x="1633.73" y="1089.39"/>
        <vehicle id="ev_2" eclass="Energy/default" CO2="0.00" CO="0.00" HC="0.00" NOx="0.00" PMx="0.00" fuel="0.00" electricity="-5.79" noise="61.46" route="route_2" type="ev_type" waiting="0.00" lane="e0_47_0" pos="127.59" speed="12.64" angle="305.50" x="1482.53" y="994.67"/>
        <vehicle id="ev_3" eclass="Energy/default" CO2="0.00" CO="0.00" HC="0.00" NOx="0.00" PMx="0.00" fuel="0.00" electricity="9.28" noise="68.94" route="route_3" type="ev_type" waiting="0.00" lane="e0_38_0" pos="59.44" speed="12.95" angle="90.00" x="1693.13" y="899.71"/>
        <vehicle id="ev_4" eclass="Energy/default" CO2="0.00" CO="0.00" HC="0.00" NOx="0.00" PMx="0.00" fuel="0.00" electricity="2.12" noise="63.80" route="route_4" type="ev_type" waiting="0.00" lane="e0_35_0" pos="10.72" speed="3.78" angle="98.71" x="1645.45" y="894.36"/>
    </timestep>
    <timestep time="23.00">
        <vehicle id="ev_0" eclass="Energy/default" CO2="0.00" CO="0.00" HC="0.00" NOx="0.00" PMx="0.00" fuel="0.00" electricity="0.08" noise="63.76" route="route_0" type="ev_type" waiting="0.00" lane="e0_58_0" pos="278.92" speed="13.23" angle="299.51" x="1344.43" y="1053.85"/>
        <vehicle id="ev_1" eclass="Energy/default" CO2="0.00" CO="0.00" HC="0.00" NOx="0.00" PMx="0.00" fuel="0.00" electricity="-1.92" noise="62.16" route="route_1" type="ev_type" waiting="0.00" lane="e0_42_0" pos="196.16" speed="12.18" angle="6.51" x="1635.03" y="1100.75"/>
        <vehicle id="ev_2" eclass="Energy/default" CO2="0.00" CO="0.00" HC="0.00" NOx="0.00" PMx="0.00" fuel="0.00" electricity="0.90" noise="63.70" route="route_2" type="ev_type" waiting="0.00" lane="e0_47_0" pos="140.24" speed="12.65" angle="305.50" x="1472.53" y="1001.79"/>
        <vehicle id="ev_3" eclass="Energy/default" CO2="0.00" CO="0.00" HC="0.00" NOx="0.00" PMx="0.00" fuel="0.00" electricity="-0.60" noise="63.08" route="route_3" type="ev_type" waiting="0.00" lane="e0_38_0" pos="72.12" speed="12.68" angle="90.00" x="1705.42" y="899.71"/>
        <vehicle id="ev_4" eclass="Energy/default" CO2="0.00" CO="0.00" HC="0.00" NOx="0.00" PMx="0.00" fuel="0.00" electricity="5.68" noise="69.27" route="route_4" type="ev_type" waiting="0.00" lane="e0_35_0" pos="16.95" speed="6.23" angle="98.71" x="1651.51" y="893.44"/>
    </timestep>
    <timestep time="24.00">
        <vehicle id="ev_0" eclass="Energy/default" CO2="0.00" CO="0.00" HC="0.00" NOx="0.00" PMx="0.00" fuel="0.00" electricity="4.82" noise="66.26" route="route_0" type="ev_type" waiting="0.00" lane="e0_58_0" pos="292.79" speed="13.87" angle="299.51" x="1332.65" y="1060.52"/>
        <vehicle id="ev_1" eclass="Energy/default" CO2="0.00" CO="0.00" HC="0.00" NOx="0.00" PMx="0.00" fuel="0.00" electricity="1.06" noise="63.50" route="route_1" type="ev_type" waiting="0.00" lane="e0_42_0" pos="208.38" speed="12.23" angle="6.51" x="1636.33" y="1112.14"/>
        <vehicle id="ev_2" eclass="Energy/default" CO2="0.00" CO="0.00" HC="0.00" NOx="0.00" PMx="0.00" fuel="0.00" electricity="2.23" noise="64.48" route="route_2" type="ev_type" waiting="0.00" lane="e0_47_0" pos="153.13" speed="12.89" angle="305.50" x="1462.35" y="1009.06"/>
        <vehicle id="ev_3" eclass="Energy/default" CO2="0.00" CO="0.00" HC="0.00" NOx="0.00" PMx="0.00" fuel="0.00" electricity="2.94" noise="64.92" route="route_3" type="ev_type" waiting="0.00" lane="e0_38_0" pos="85.16" speed="13.04" angle="90.00" x="1718.05" y="899.71"/>
        <vehicle id="ev_4" eclass="Energy/default" CO2="0.00" CO="0.00" HC="0.00" NOx="0.00" PMx="0.00" fuel="0.00" electricity="6.27" noise="67.60" route="route_4" type="ev_type" waiting="0.00" lane="e0_35_0" pos="25.05" speed="8.09" angle="98.71" x="1659.37" y="892.23"/>
    </timestep>
    <timestep time="25.00">
        <vehicle id="ev_0" eclass="Energy/default" CO2="0.00" CO="0.00" HC="0.00" NOx="0.00" PMx="0.00" fuel="0.00" electricity="-4.09" noise="62.17" route="route_0" type="ev_type" waiting="0.00" lane="e0_58_0" pos="305.76" speed="12.97" angle="299.51" x="1321.62" y="1066.76"/>
        <vehicle id="ev_1" eclass="Energy/default" CO2="0.00" CO="0.00" HC="0.00" NOx="0.00" PMx="0.00" fuel="0.00" electricity="3.37" noise="64.97" route="route_1" type="ev_type" waiting="0.00" lane="e0_42_0" pos="221.07" speed="12.69" angle="6.51" x="1637.67" y="1123.97"/>
        <vehicle id="ev_2" eclass="Energy/default" CO2="0.00" CO="0.00" HC="0.00" NOx="0.00" PMx="0.00" fuel="0.00" electricity="3.38" noise="65.28" route="route_2" type="ev_type" waiting="0.00" lane="e0_47_0" pos="166.45" speed="13.31" angle="305.50" x="1451.83" y="1016.56"/>
        <vehicle id="ev_3" eclass="Energy/default" CO2="0.00" CO="0.00" HC="0.00" NOx="0.00" PMx="0.00" fuel="0.00" electricity="3.09" noise="65.18" route="route_3" type="ev_type" waiting="0.00" lane="e0_38_0" pos="98.57" speed="13.41" angle="90.00" x="1731.05" y="899.71"/>
        <vehicle id="ev_4" eclass="Energy/default" CO2="0.00" CO="0.00" HC="0.00" NOx="0.00" PMx="0.00" fuel="0.00" electricity="9.93" noise="70.56" route="route_4" type="ev_type" waiting="0.00" lane="e0_35_0" pos="35.44" speed="10.40" angle="98.71" x="1669.47" y="890.69"/>
        <vehicle id="ev_5" eclass="Energy/default" CO2="0.00" CO="0.00" HC="0.00" NOx="0.00" PMx="0.00" fuel="0.00" electricity="0.03" noise="55.94" route="route_5" type="ev_type" waiting="0.00" lane="e0_12_0" pos="4.60" speed="0.00" angle="277.06" x="1585.32" y="906.06"/>
    </timestep>
    <timestep time="26.00">
        <vehicle id="ev_0" eclass="Energy/default" CO2="0.00" CO="0.00" HC="0.00" NOx="0.00" PMx="0.00" fuel="0.00" electricity="6.00" noise="66.89" route="route_0" type="ev_type" waiting="0.00" lane="e0_58_0" pos="319.58" speed="13.83" angle="299.51" x="1309.88" y="1073.40"/>
        <vehicle id="ev_1" eclass="Energy/default" CO2="0.00" CO="0.00" HC="0.00" NOx="0.00" PMx="0.00" fuel="0.00" electricity="1.18" noise="63.89" route="route_1" type="ev_type" waiting="0.00" lane="e0_42_0" pos="233.81" speed="12.74" angle="6.51" x="1639.03" y="1135.84"/>
        <vehicle id="ev_2" eclass="Energy/default" CO2="0.00" CO="0.00" HC="0.00" NOx="0.00" PMx="0.00" fuel="0.00" electricity="0.41" noise="63.88" route="route_2" type="ev_type" waiting="0.00" lane="e0_47_0" pos="179.67" speed="13.22" angle="305.50" x="1441.38" y="1024.01"/>
        <vehicle id="ev_3" eclass="Energy/default" CO2="0.00" CO="0.00" HC="0.00" NOx="0.00" PMx="0.00" fuel="0.00" electricity="-3.17" noise="62.15" route="route_3" type="ev_type" waiting="0.00" lane="e0_38_0" pos="111.23" speed="12.66" angle="90.00" x="1743.32" y="899.71"/>
        <vehicle id="ev_4" eclass="Energy/default" CO2="0.00" CO="0.00" HC="0.00" NOx="0.00" PMx="0.00" fuel="0.00" electricity="11.33" noise="70.75" route="route_4" type="ev_type" waiting="0.00" lane="e0_35_0" pos="47.94" speed="12.49" angle="98.71" x="1681.60" y="888.83"/>
        <vehicle id="ev_5" eclass="Energy/default" CO2="0.00" CO="0.00" HC="0.00" NOx="0.00" PMx="0.00" fuel="0.00" electricity="0.54" noise="62.83" route="route_5" type="ev_type" waiting="0.00" lane="e0_12_0" pos="6.04" speed="1.44" angle="277.06" x="1583.97" y="906.23"/>
    </timestep>
    <timestep time="27.00">
        <vehicle id="ev_0" eclass="Energy/default" CO2="0.00" CO="0.00" HC="0.00" NOx="0.00" PMx="0.00" fuel="0.00" electricity="-5.19" noise="61.67" route="route_0" type="ev_type" waiting="0.00" lane="e0_58_0" pos="332.31" speed="12.72" angle="299.51" x="1299.07" y="1079.52"/>
        <vehicle id="ev_1" eclass="Energy/default" CO2="0.00" CO="0.00" HC="0.00" NOx="0.00" PMx="0.00" fuel="0.00" electricity="-2.90" noise="61.67" route="route_1" type="ev_type" waiting="0.00" lane="e0_42_0" pos="245.83" speed="12.02" angle="6.51" x="1640.31" y="1147.05"/>
        <vehicle id="ev_2" eclass="Energy/default" CO2="0.00" CO="0.00" HC="0.00" NOx="0.00" PMx="0.00" fuel="0.00" electricity="-0.54" noise="63.32" route="route_2" type="ev_type" waiting="0.00" lane="e0_47_0" pos="192.63" speed="12.96" angle="305.50" x="1431.13" y="1031.32"/>
        <vehicle id="ev_3" eclass="Energy/default" CO2="0.00" CO="0.00" HC="0.00" NOx="0.00" PMx="0.00" fuel="0.00" electricity="4.61" noise="65.93" route="route_3" type="ev_type" waiting="0.00" lane="e0_38_0" pos="124.54" speed="13.31" angle="90.00" x="1756.22" y="899.71"/>
        <vehicle id="ev_4" eclass="Energy/default" CO2="0.00" CO="0.00" HC="0.00" NOx="0.00" PMx="0.00" fuel="0.00" electricity="2.16" noise="64.35" route="route_4" type="ev_type" waiting="0.00" lane="e0_35_0" pos="60.67" speed="12.73" angle="98.71" x="1693.96" y="886.93"/>
        <vehicle id="ev_5" eclass="Energy/default" CO2="0.00" CO="0.00" HC="0.00" NOx="0.00" PMx="0.00" fuel="0.00" electricity="1.83" noise="64.53" route="route_5" type="ev_type" waiting="0.00" lane="e0_12_0" pos="9.16" speed="3.12" angle="277.06" x="1581.03" y="906.59"/>
    </timestep>
    <timestep time="28.00">
        <vehicle id="ev_0" eclass="Energy/default" CO2="0.00" CO="0.00" HC="0.00" NOx="0.00" PMx="0.00" fuel="0.00" electricity="1.52" noise="64.11" route="route_0" type="ev_type" waiting="0.00" lane="e0_58_0" pos="345.14" speed="12.83" angle="299.51" x="1288.16" y="1085.70"/>
        <vehicle id="ev_1" eclass="Energy/default" CO2="0.00" CO="0.00" HC="0.00" NOx="0.00" PMx="0.00" fuel="0.00" electricity="4.28" noise="65.48" route="route_1" type="ev_type" waiting="0.00" lane="e0_42_0" pos="258.48" speed="12.65" angle="6.51" x="1641.65" y="1158.84"/>
        <vehicle id="ev_2" eclass="Energy/default" CO2="0.00" CO="0.00" HC="0.00" NOx="0.00" PMx="0.00" fuel="0.00" electricity="4.51" noise="65.98" route="route_2" type="ev_type" waiting="0.00" lane="e0_47_0" pos="206.20" speed="13.57" angle="305.50" x="1420.41" y="1038.97"/>
        <vehicle id="ev_3" eclass="Energy/default" CO2="0.00" CO="0.00" HC="0.00" NOx="0.00" PMx="0.00" fuel="0.00" electricity="-0.57" noise="63.37" route="route_3" type="ev_type" waiting="0.00" lane="e0_38_0" pos="137.59" speed="13.04" angle="90.00" x="1768.86" y="899.71"/>
        <vehicle id="ev_4" eclass="Energy/default" CO2="0.00" CO="0.00" HC="0.00" NOx="0.00" PMx="0.00" fuel="0.00" electricity="2.76" noise="64.83" route="route_4" type="ev_type" waiting="0.00" lane="e0_35_0" pos="73.72" speed="13.05" angle="98.71" x="1706.64" y="884.99"/>