<?xml version="1.0" encoding="UTF-8"?>

<!-- generated on 2026-04-20T19:52:00.672219-05:00 by Eclipse SUMO sumo 1.26.0
<sumoConfiguration xmlns:xsi="http://www.w3.org/2001/XMLSchema-instance" xsi:noNamespaceSchemaLocation="http://sumo.dlr.de/xsd/sumoConfiguration.xsd">

    <input>
        <net-file value="sumo_scenario\network.net.xml"/>
        <route-files value="sumo_scenario\vehicles.rou.xml"/>
        <additional-files value="sumo_scenario\additional.add.xml"/>
    </input>

    <output>
        <emission-output value="sumo_outputs\emissions.xml"/>
        <battery-output value="sumo_outputs\battery.xml"/>
        <chargingstations-output value="sumo_outputs\chargingstations.xml"/>
        <fcd-output value="sumo_outputs\fcd.xml"/>
        <tripinfo-output value="sumo_outputs\tripinfo.xml"/>
        <vehroute-output value="sumo_outputs\vehroutes.xml"/>
    </output>

    <time>
        <begin value="0"/>
        <end value="86400"/>
        <step-length value="1.0"/>
    </time>

    <processing>
        <collision.action value="warn"/>
        <time-to-teleport value="-1"/>
    </processing>

    <report>
        <no-warnings value="true"/>
    </report>

    <battery>
        <device.battery.probability value="1.0"/>
    </battery>

    <traci_server>
        <remote-port value="56225"/>
    </traci_server>

</sumoConfiguration>
-->

<fcd-export xmlns:xsi="http://www.w3.org/2001/XMLSchema-instance" xsi:noNamespaceSchemaLocation="http://sumo.dlr.de/xsd/fcd_file.xsd">
    <timestep time="0.00">
        <vehicle id="ev_0" x="1577.50" y="921.92" angle="299.51" type="ev_type" speed="0.00" pos="4.60" lane="e0_58_0" slope="0.00"/>
    </timestep>
    <timestep time="1.00">
        <vehicle id="ev_0" x="1575.38" y="923.12" angle="299.51" type="ev_type" speed="2.49" pos="7.09" lane="e0_58_0" slope="0.00"/>
    </timestep>
    <timestep time="2.00">
        <vehicle id="ev_0" x="1571.68" y="925.22" angle="299.51" type="ev_type" speed="4.36" pos="11.45" lane="e0_58_0" slope="0.00"/>
    </timestep>
    <timestep time="3.00">
        <vehicle id="ev_0" x="1565.82" y="928.54" angle="299.51" type="ev_type" speed="6.90" pos="18.35" lane="e0_58_0" slope="0.00"/>
    </timestep>
    <timestep time="4.00">
        <vehicle id="ev_0" x="1558.07" y="932.92" angle="299.51" type="ev_type" speed="9.12" pos="27.47" lane="e0_58_0" slope="0.00"/>
    </timestep>
    <timestep time="5.00">
        <vehicle id="ev_0" x="1548.25" y="938.48" angle="299.51" type="ev_type" speed="11.55" pos="39.03" lane="e0_58_0" slope="0.00"/>
        <vehicle id="ev_1" x="1614.66" y="922.20" angle="6.51" type="ev_type" speed="0.00" pos="4.60" lane="e0_42_0" slope="0.00"/>
    </timestep>
    <timestep time="6.00">
        <vehicle id="ev_0" x="1536.75" y="944.99" angle="299.51" type="ev_type" speed="13.53" pos="52.56" lane="e0_58_0" slope="0.00"/>
        <vehicle id="ev_1" x="1614.81" y="923.53" angle="6.51" type="ev_type" speed="1.43" pos="6.03" lane="e0_42_0" slope="0.00"/>
    </timestep>
    <timestep time="7.00">
        <vehicle id="ev_0" x="1525.78" y="951.20" angle="299.51" type="ev_type" speed="12.92" pos="65.48" lane="e0_58_0" slope="0.00"/>
        <vehicle id="ev_1" x="1615.24" y="927.29" angle="6.51" type="ev_type" speed="4.03" pos="10.07" lane="e0_42_0" slope="0.00"/>
    </timestep>
    <timestep time="8.00">
        <vehicle id="ev_0" x="1514.02" y="957.86" angle="299.51" type="ev_type" speed="13.84" pos="79.32" lane="e0_58_0" slope="0.00"/>
        <vehicle id="ev_1" x="1615.90" y="933.08" angle="6.51" type="ev_type" speed="6.21" pos="16.27" lane="e0_42_0" slope="0.00"/>
    </timestep>
    <timestep time="9.00">
        <vehicle id="ev_0" x="1502.51" y="964.37" angle="299.51" type="ev_type" speed="13.54" pos="92.86" lane="e0_58_0" slope="0.00"/>
        <vehicle id="ev_1" x="1616.82" y="941.13" angle="6.51" type="ev_type" speed="8.63" pos="24.91" lane="e0_42_0" slope="0.00"/>
    </timestep>
    <timestep time="10.00">
        <vehicle id="ev_0" x="1490.72" y="971.04" angle="299.51" type="ev_type" speed="13.88" pos="106.74" lane="e0_58_0" slope="0.00"/>
        <vehicle id="ev_1" x="1617.95" y="951.07" angle="6.51" type="ev_type" speed="10.67" pos="35.57" lane="e0_42_0" slope="0.00"/>
        <vehicle id="ev_2" x="1579.72" y="925.35" angle="305.50" type="ev_type" speed="0.00" pos="4.60" lane="e0_47_0" slope="0.00"/>
    </timestep>
    <timestep time="11.00">
        <vehicle id="ev_0" x="1479.86" y="977.19" angle="299.51" type="ev_type" speed="12.77" pos="119.52" lane="e0_58_0" slope="0.00"/>
        <vehicle id="ev_1" x="1619.32" y="963.05" angle="6.51" type="ev_type" speed="12.85" pos="48.43" lane="e0_42_0" slope="0.00"/>
        <vehicle id="ev_2" x="1578.12" y="926.49" angle="305.50" type="ev_type" speed="2.02" pos="6.62" lane="e0_47_0" slope="0.00"/>
    </timestep>
    <timestep time="12.00">
        <vehicle id="ev_0" x="1468.91" y="983.39" angle="299.51" type="ev_type" speed="12.89" pos="132.41" lane="e0_58_0" slope="0.00"/>
        <vehicle id="ev_1" x="1620.59" y="974.15" angle="6.51" type="ev_type" speed="11.91" pos="60.34" lane="e0_42_0" slope="0.00"/>
        <vehicle id="ev_2" x="1575.07" y="928.66" angle="305.50" type="ev_type" speed="3.85" pos="10.47" lane="e0_47_0" slope="0.00"/>
    </timestep>
    <timestep time="13.00">
        <vehicle id="ev_0" x="1457.85" y="989.65" angle="299.51" type="ev_type" speed="13.02" pos="145.43" lane="e0_58_0" slope="0.00"/>
        <vehicle id="ev_1" x="1621.84" y="985.14" angle="6.51" type="ev_type" speed="11.79" pos="72.12" lane="e0_42_0" slope="0.00"/>
        <vehicle id="ev_2" x="1570.18" y="932.15" angle="305.50" type="ev_type" speed="6.19" pos="16.67" lane="e0_47_0" slope="0.00"/>
    </timestep>
    <timestep time="14.00">
        <vehicle id="ev_0" x="1446.71" y="995.95" angle="299.51" type="ev_type" speed="13.10" pos="158.53" lane="e0_58_0" slope="0.00"/>
        <vehicle id="ev_1" x="1623.16" y="996.71" angle="6.51" type="ev_type" speed="12.41" pos="84.54" lane="e0_42_0" slope="0.00"/>
        <vehicle id="ev_2" x="1563.30" y="937.06" angle="305.50" type="ev_type" speed="8.71" pos="25.38" lane="e0_47_0" slope="0.00"/>
    </timestep>
    <timestep time="15.00">
        <vehicle id="ev_0" x="1435.75" y="1002.16" angle="299.51" type="ev_type" speed="12.91" pos="171.44" lane="e0_58_0" slope="0.00"/>
        <vehicle id="ev_1" x="1624.41" y="1007.69" angle="6.51" type="ev_type" speed="11.78" pos="96.32" lane="e0_42_0" slope="0.00"/>
        <vehicle id="ev_2" x="1555.08" y="942.92" angle="305.50" type="ev_type" speed="10.40" pos="35.77" lane="e0_47_0" slope="0.00"/>
        <vehicle id="ev_3" x="1639.98" y="899.71" angle="90.00" type="ev_type" speed="0.00" pos="4.60" lane="e0_38_0" slope="0.00"/>
    </timestep>
    <timestep time="16.00">
        <vehicle id="ev_0" x="1423.99" y="1008.81" angle="299.51" type="ev_type" speed="13.83" pos="185.28" lane="e0_58_0" slope="0.00"/>
        <vehicle id="ev_1" x="1625.78" y="1019.68" angle="6.51" type="ev_type" speed="12.86" pos="109.18" lane="e0_42_0" slope="0.00"/>
        <vehicle id="ev_2" x="1545.01" y="950.10" angle="305.50" type="ev_type" speed="12.74" pos="48.52" lane="e0_47_0" slope="0.00"/>
        <vehicle id="ev_3" x="1641.94" y="899.71" angle="90.00" type="ev_type" speed="2.03" pos="6.63" lane="e0_38_0" slope="0.00"/>
    </timestep>
    <timestep time="17.00">
        <vehicle id="ev_0" x="1412.48" y="1015.33" angle="299.51" type="ev_type" speed="13.55" pos="198.82" lane="e0_58_0" slope="0.00"/>
        <vehicle id="ev_1" x="1627.10" y="1031.23" angle="6.51" type="ev_type" speed="12.39" pos="121.58" lane="e0_42_0" slope="0.00"/>
        <vehicle id="ev_2" x="1534.73" y="957.43" angle="305.50" type="ev_type" speed="13.01" pos="61.53" lane="e0_47_0" slope="0.00"/>
        <vehicle id="ev_3" x="1645.81" y="899.71" angle="90.00" type="ev_type" speed="3.98" pos="10.61" lane="e0_38_0" slope="0.00"/>
    </timestep>
    <timestep time="18.00">
        <vehicle id="ev_0" x="1401.26" y="1021.68" angle="299.51" type="ev_type" speed="13.21" pos="212.03" lane="e0_58_0" slope="0.00"/>
        <vehicle id="ev_1" x="1628.41" y="1042.77" angle="6.51" type="ev_type" speed="12.38" pos="133.96" lane="e0_42_0" slope="0.00"/>
        <vehicle id="ev_2" x="1524.53" y="964.71" angle="305.50" type="ev_type" speed="12.92" pos="74.44" lane="e0_47_0" slope="0.00"/>
        <vehicle id="ev_3" x="1652.15" y="899.71" angle="90.00" type="ev_type" speed="6.54" pos="17.16" lane="e0_38_0" slope="0.00"/>
    </timestep>
    <timestep time="19.00">
        <vehicle id="ev_0" x="1389.69" y="1028.23" angle="299.51" type="ev_type" speed="13.62" pos="225.65" lane="e0_58_0" slope="0.00"/>
        <vehicle id="ev_1" x="1629.71" y="1054.14" angle="6.51" type="ev_type" speed="12.20" pos="146.16" lane="e0_42_0" slope="0.00"/>
        <vehicle id="ev_2" x="1513.65" y="972.47" angle="305.50" type="ev_type" speed="13.76" pos="88.20" lane="e0_47_0" slope="0.00"/>
        <vehicle id="ev_3" x="1660.16" y="899.71" angle="90.00" type="ev_type" speed="8.27" pos="25.43" lane="e0_38_0" slope="0.00"/>
    </timestep>
    <timestep time="20.00">
        <vehicle id="ev_0" x="1378.13" y="1034.77" angle="299.51" type="ev_type" speed="13.60" pos="239.25" lane="e0_58_0" slope="0.00"/>
        <vehicle id="ev_1" x="1631.00" y="1065.43" angle="6.51" type="ev_type" speed="12.11" pos="158.27" lane="e0_42_0" slope="0.00"/>
        <vehicle id="ev_2" x="1503.47" y="979.73" angle="305.50" type="ev_type" speed="12.89" pos="101.09" lane="e0_47_0" slope="0.00"/>
        <vehicle id="ev_3" x="1669.56" y="899.71" angle="90.00" type="ev_type" speed="9.69" pos="35.12" lane="e0_38_0" slope="0.00"/>
        <vehicle id="ev_4" x="1639.51" y="895.28" angle="98.71" type="ev_type" speed="0.00" pos="4.60" lane="e0_35_0" slope="0.00"/>
    </timestep>
    <timestep time="21.00">
        <vehicle id="ev_0" x="1367.04" y="1041.05" angle="299.51" type="ev_type" speed="13.06" pos="252.31" lane="e0_58_0" slope="0.00"/>
        <vehicle id="ev_1" x="1632.38" y="1077.55" angle="6.51" type="ev_type" speed="13.00" pos="171.26" lane="e0_42_0" slope="0.00"/>
        <vehicle id="ev_2" x="1492.52" y="987.54" angle="305.50" type="ev_type" speed="13.86" pos="114.95" lane="e0_47_0" slope="0.00"/>
        <vehicle id="ev_3" x="1680.58" y="899.71" angle="90.00" type="ev_type" speed="11.37" pos="46.49" lane="e0_38_0" slope="0.00"/>
        <vehicle id="ev_4" x="1641.78" y="894.93" angle="98.71" type="ev_type" speed="2.34" pos="6.94" lane="e0_35_0" slope="0.00"/>
    </timestep>
    <timestep time="22.00">
        <vehicle id="ev_0" x="1355.67" y="1047.48" angle="299.51" type="ev_type" speed="13.38" pos="265.69" lane="e0_58_0" slope="0.00"/>
        <vehicle id="ev_1" x="1633.73" y="1089.39" angle="6.51" type="ev_type" speed="12.71" pos="183.97" lane="e0_42_0" slope="0.00"/>
        <vehicle id="ev_2" x="1482.53" y="994.67" angle="305.50" type="ev_type" speed="12.64" pos="127.59" lane="e0_47_0" slope="0.00"/>
        <vehicle id="ev_3" x="1693.13" y="899.71" angle="90.00" type="ev_type" speed="12.95" pos="59.44" lane="e0_38_0" slope="0.00"/>
        <vehicle id="ev_4" x="1645.45" y="894.36" angle="98.71" type="ev_type" speed="3.78" pos="10.72" lane="e0_35_0" slope="0.00"/>
    </timestep>
    <timestep time="23.00">
        <vehicle id="ev_0" x="1344.43" y="1053.85" angle="299.51" type="ev_type" speed="13.23" pos="278.92" lane="e0_58_0" slope="0.00"/>
        <vehicle id="ev_1" x="1635.03" y="1100.75" angle="6.51" type="ev_type" speed="12.18" pos="196.16" lane="e0_42_0" slope="0.00"/>
        <vehicle id="ev_2" x="1472.53" y="1001.79" angle="305.50" type="ev_type" speed="12.65" pos="140.24" lane="e0_47_0" slope="0.00"/>
        <vehicle id="ev_3" x="1705.42" y="899.71" angle="90.00" type="ev_type" speed="12.68" pos="72.12" lane="e0_38_0" slope="0.00"/>
        <vehicle id="ev_4" x="1651.51" y="893.44" angle="98.71" type="ev_type" speed="6.23" pos="16.95" lane="e0_35_0" slope="0.00"/>
    </timestep>
    <timestep time="24.00">
        <vehicle id="ev_0" x="1332.65" y="1060.52" angle="299.51" type="ev_type" speed="13.87" pos="292.79" lane="e0_58_0" slope="0.00"/>
        <vehicle id="ev_1" x="1636.33" y="1112.14" angle="6.51" type="ev_type" speed="12.23" pos="208.38" lane="e0_42_0" slope="0.00"/>
        <vehicle id="ev_2" x="1462.35" y="1009.06" angle="305.50" type="ev_type" speed="12.89" pos="153.13" lane="e0_47_0" slope="0.00"/>
        <vehicle id="ev_3" x="1718.05" y="899.71" angle="90.00" type="ev_type" speed="13.04" pos="85.16" lane="e0_38_0" slope="0.00"/>
        <vehicle id="ev_4" x="1659.37" y="892.23" angle="98.71" type="ev_type" speed="8.09" pos="25.05" lane="e0_35_0" slope="0.00"/>
    </timestep>
    <timestep time="25.00">
        <vehicle id="ev_0" x="1321.62" y="1066.76" angle="299.51" type="ev_type" speed="12.97" pos="305.76" lane="e0_58_0" slope="0.00"/>
        <vehicle id="ev_1" x="1637.67" y="1123.97" angle="6.51" type="ev_type" speed="12.69" pos="221.07" lane="e0_42_0" slope="0.00"/>
        <vehicle id="ev_2" x="1451.83" y="1016.56" angle="305.50" type="ev_type" speed="13.31" pos="166.45" lane="e0_47_0" slope="0.00"/>
        <vehicle id="ev_3" x="1731.05" y="899.71" angle="90.00" type="ev_type" speed="13.41" pos="98.57" lane="e0_38_0" slope="0.00"/>
        <vehicle id="ev_4" x="1669.47" y="890.69" angle="98.71" type="ev_type" speed="10.40" pos="35.44" lane="e0_35_0" slope="0.00"/>
        <vehicle id="ev_5" x="1585.32" y="906.06" angle="277.06" type="ev_type" speed="0.00" pos="4.60" lane="e0_12_0" slope="0.00"/>
    </timestep>
    <timestep time="26.00">
        <vehicle id="ev_0" x="1309.88" y="1073.40" angle="299.51" type="ev_type" speed="13.83" pos="319.58" lane="e0_58_0" slope="0.00"/>
        <vehicle id="ev_1" x="1639.03" y="1135.84" angle="6.51" type="ev_type" speed="12.74" pos="233.81" lane="e0_42_0" slope="0.00"/>
        <vehicle id="ev_2" x="1441.38" y="1024.01" angle="305.50" type="ev_type" speed="13.22" pos="179.67" lane="e0_47_0" slope="0.00"/>
        <vehicle id="ev_3" x="1743.32" y="899.71" angle="90.00" type="ev_type" speed="12.66" pos="111.23" lane="e0_38_0" slope="0.00"/>
        <vehicle id="ev_4" x="1681.60" y="888.83" angle="98.71" type="ev_type" speed="12.49" pos="47.94" lane="e0_35_0" slope="0.00"/>
        <vehicle id="ev_5" x="1583.97" y="906.23" angle="277.06" type="ev_type" speed="1.44" pos="6.04" lane="e0_12_0" slope="0.00"/>
    </timestep>
    <timestep time="27.00">
        <vehicle id="ev_0" x="1299.07" y="1079.52" angle="299.51" type="ev_type" speed="12.72" pos="332.31" lane="e0_58_0" slope="0.00"/>
        <vehicle id="ev_1" x="1640.31" y="1147.05" angle="6.51" type="ev_type" speed="12.02" pos="245.83" lane="e0_42_0" slope="0.00"/>
        <vehicle id="ev_2" x="1431.13" y="1031.32" angle="305.50" type="ev_type" speed="12.96" pos="192.63" lane="e0_47_0" slope="0.00"/>
        <vehicle id="ev_3" x="1756.22" y="899.71" angle="90.00" type="ev_type" speed="13.31" pos="124.54" lane="e0_38_0" slope="0.00"/>
        <vehicle id="ev_4" x="1693.96" y="886.93" angle="98.71" type="ev_type" speed="12.73" pos="60.67" lane="e0_35_0" slope="0.00"/>
        <vehicle id="ev_5" x="1581.03" y="906.59" angle="277.06" type="ev_type" speed="3.12" pos="9.16" lane="e0_12_0" slope="0.00"/>
    </timestep>
    <timestep time="28.00">
        <vehicle id="ev_0" x="1288.16" y="1085.70" angle="299.51" type="ev_type" speed="12.83" pos="345.14" lane="e0_58_0" slope="0.00"/>
        <vehicle id="ev_1" x="1641.65" y="1158.84" angle="6.51" type="ev_type" speed="12.65" pos="258.48" lane="e0_42_0" slope="0.00"/>
        <vehicle id="ev_2" x="1420.41" y="1038.97" angle="305.50" type="ev_type" speed="13.57" pos="206.20" lane="e0_47_0" slope="0.00"/>
        <vehicle id="ev_3" x="1768.86" y="899.71" angle="90.00" type="ev_type" speed="13.04" pos="137.59" lane="e0_38_0" slope="0.00"/>
        <vehicle id="ev_4" x="1706.64" y="884.99" angle="98.71" type="ev_type" speed="13.05" pos="73.72" lane="e0_35_0" slope="0.00"/>
        <vehicle id="ev_5" x="1575.70" y="907.25" angle="277.06" type="ev_type" speed="5.66" pos="14.81" lane="e0_12_0" slope="0.00"/>
    </timestep>
    <timestep time="29.00">
        <vehicle id="ev_0" x="1276.57" y="1092.26" angle="299.51" type="ev_type" speed="13.65" pos="358.79" lane="e0_58_0" slope="0.00"/>
        <vehicle id="ev_1" x="1643.01" y="1170.73" angle="6.51" type="ev_type" speed="12.75" pos="271.23" lane="e0_42_0" slope="0.00"/>
        <vehicle id="ev_2" x="1410.03" y="1046.37" angle="305.50" type="ev_type" speed="13.14" pos="219.34" lane="e0_47_0" slope="0.00"/>
        <vehicle id="ev_3" x="1781.19" y="899.71" angle="90.00" type="ev_type" speed="12.73" pos="150.31" lane="e0_38_0" slope="0.00"/>
        <vehicle id="ev_4" x="1719.04" y="883.09" angle="98.71" type="ev_type" speed="12.77" pos="86.48" lane="e0_35_0" slope="0.00"/>
        <vehicle id="ev_5" x="1568.52" y="908.14" angle="277.06" type="ev_type" speed="7.62" pos="22.43" lane="e0_12_0" slope="0.00"/>
    </timestep>
    <timestep time="30.00">
        <vehicle id="ev_0" x="1265.23" y="1098.67" angle="299.51" type="ev_type" speed="13.34" pos="372.13" lane="e0_58_0" slope="0.00"/>
        <vehicle id="ev_1" x="1643.95" y="1178.97" angle="6.51" type="ev_type" speed="8.84" pos="280.07" lane="e0_42_0" slope="0.00"/>
        <vehicle id="ev_2" x="1399.81" y="1053.66" angle="305.50" type="ev_type" speed="12.93" pos="232.27" lane="e0_47_0" slope="0.00"/>
        <vehicle id="ev_3" x="1793.84" y="899.71" angle="90.00" type="ev_type" speed="13.05" pos="163.36" lane="e0_38_0" slope="0.00"/>
        <vehicle id="ev_4" x="1731.45" y="881.19" angle="98.71" type="ev_type" speed="12.78" pos="99.26" lane="e0_35_0" slope="0.00"/>
        <vehicle id="ev_5" x="1559.62" y="909.24" angle="277.06" type="ev_type" speed="9.45" pos="31.88" lane="e0_12_0" slope="0.00"/>
        <vehicle id="ev_6" x="1564.51" y="896.13" angle="261.62" type="ev_type" speed="0.00" pos="4.60" lane="e0_16_0" slope="0.00"/>
    </timestep>
    <timestep time="31.00">
        <vehicle id="ev_0" x="1253.66" y="1105.22" angle="299.51" type="ev_type" speed="13.62" pos="385.75" lane="e0_58_0" slope="0.00"/>
        <vehicle id="ev_1" x="1644.57" y="1184.39" angle="6.51" type="ev_type" speed="5.82" pos="285.89" lane="e0_42_0" slope="0.00"/>
        <vehicle id="ev_2" x="1389.77" y="1060.81" angle="305.50" type="ev_type" speed="12.70" pos="244.97" lane="e0_47_0" slope="0.00"/>
        <vehicle id="ev_3" x="1806.33" y="899.71" angle="90.00" type="ev_type" speed="12.89" pos="176.25" lane="e0_38_0" slope="0.00"/>
        <vehicle id="ev_4" x="1743.93" y="879.28" angle="98.71" type="ev_type" speed="12.84" pos="112.11" lane="e0_35_0" slope="0.00"/>
        <vehicle id="ev_5" x="1548.79" y="910.58" angle="277.06" type="ev_type" speed="11.49" pos="43.37" lane="e0_12_0" slope="0.00"/>
        <vehicle id="ev_6" x="1562.82" y="895.88" angle="261.62" type="ev_type" speed="1.75" pos="6.35" lane="e0_16_0" slope="0.00"/>
    </timestep>
    <timestep time="32.00">
        <vehicle id="ev_0" x="1242.43" y="1111.58" angle="299.51" type="ev_type" speed="13.21" pos="398.96" lane="e0_58_0" slope="0.00"/>
        <vehicle id="ev_1" x="1644.71" y="1185.63" angle="6.51" type="ev_type" speed="1.32" pos="287.22" lane="e0_42_0" slope="0.00"/>
        <vehicle id="ev_2" x="1378.88" y="1068.58" angle="305.50" type="ev_type" speed="13.78" pos="258.75" lane="e0_47_0" slope="0.00"/>
        <vehicle id="ev_3" x="1818.64" y="899.71" angle="90.00" type="ev_type" speed="12.71" pos="188.96" lane="e0_38_0" slope="0.00"/>
        <vehicle id="ev_4" x="1757.23" y="877.24" angle="98.71" type="ev_type" speed="13.69" pos="125.80" lane="e0_35_0" slope="0.00"/>
        <vehicle id="ev_5" x="1538.82" y="911.82" angle="277.06" type="ev_type" speed="10.58" pos="53.94" lane="e0_12_0" slope="0.00"/>
        <vehicle id="ev_6" x="1559.31" y="895.36" angle="261.62" type="ev_type" speed="3.66" pos="10.01" lane="e0_16_0" slope="0.00"/>
    </timestep>
    <timestep time="33.00">
        <vehicle id="ev_0" x="1231.45" y="1117.80" angle="299.51" type="ev_type" speed="12.93" pos="411.89" lane="e0_58_0" slope="0.00"/>
        <vehicle id="ev_1" x="1644.71" y="1185.67" angle="6.51" type="ev_type" speed="0.04" pos="287.26" lane="e0_42_0" slope="0.00"/>
        <vehicle id="ev_2" x="1368.71" y="1075.83" angle="305.50" type="ev_type" speed="12.87" pos="271.62" lane="e0_47_0" slope="0.00"/>
        <vehicle id="ev_3" x="1832.07" y="899.71" angle="90.00" type="ev_type" speed="13.85" pos="202.81" lane="e0_38_0" slope="0.00"/>
        <vehicle id="ev_4" x="1770.29" y="875.24" angle="98.71" type="ev_type" speed="13.45" pos="139.24" lane="e0_35_0" slope="0.00"/>
        <vehicle id="ev_5" x="1528.25" y="913.13" angle="277.06" type="ev_type" speed="11.22" pos="65.16" lane="e0_12_0" slope="0.00"/>
        <vehicle id="ev_6" x="1553.78" y="894.55" angle="261.62" type="ev_type" speed="5.75" pos="15.75" lane="e0_16_0" slope="0.00"/>
    </timestep>
    <timestep time="34.00">
        <vehicle id="ev_0" x="1220.31" y="1124.10" angle="299.51" type="ev_type" speed="13.12" pos="425.01" lane="e0_58_0" slope="0.00"/>
        <vehicle id="ev_1" x="1644.71" y="1185.67" angle="6.51" type="ev_type" speed="0.00" pos="287.26" lane="e0_42_0" slope="0.00"/>
        <vehicle id="ev_2" x="1358.68" y="1082.99" angle="305.50" type="ev_type" speed="12.70" pos="284.32" lane="e0_47_0" slope="0.00"/>
        <vehicle id="ev_3" x="1844.66" y="899.71" angle="90.00" type="ev_type" speed="13.00" pos="215.81" lane="e0_38_0" slope="0.00"/>
        <vehicle id="ev_4" x="1783.23" y="873.26" angle="98.71" type="ev_type" speed="13.32" pos="152.57" lane="e0_35_0" slope="0.00"/>
        <vehicle id="ev_5" x="1518.04" y="914.39" angle="277.06" type="ev_type" speed="10.83" pos="76.00" lane="e0_12_0" slope="0.00"/>
        <vehicle id="ev_6" x="1546.74" y="893.51" angle="261.62" type="ev_type" speed="7.33" pos="23.08" lane="e0_16_0" slope="0.00"/>
    </timestep>
    <timestep time="35.00">
        <vehicle id="ev_0" x="1208.88" y="1130.57" angle="299.51" type="ev_type" speed="13.45" pos="438.46" lane="e0_58_0" slope="0.00"/>
        <vehicle id="ev_1" x="1644.71" y="1185.67" angle="6.51" type="ev_type" speed="0.00" pos="287.26" lane="e0_42_0" slope="0.00"/>
        <vehicle id="ev_2" x="1348.21" y="1090.46" angle="305.50" type="ev_type" speed="13.26" pos="297.57" lane="e0_47_0" slope="0.00"/>
        <vehicle id="ev_3" x="1858.10" y="899.71" angle="90.00" type="ev_type" speed="13.86" pos="229.67" lane="e0_38_0" slope="0.00"/>
        <vehicle id="ev_4" x="1795.92" y="871.32" angle="98.71" type="ev_type" speed="13.06" pos="165.63" lane="e0_35_0" slope="0.00"/>
        <vehicle id="ev_5" x="1508.07" y="915.62" angle="277.06" type="ev_type" speed="10.57" pos="86.57" lane="e0_12_0" slope="0.00"/>
        <vehicle id="ev_6" x="1538.16" y="892.25" angle="261.62" type="ev_type" speed="8.92" pos="32.01" lane="e0_16_0" slope="0.00"/>
        <vehicle id="ev_7" x="1564.15" y="900.02" angle="266.44" type="ev_type" speed="0.00" pos="4.60" lane="e0_14_0" slope="0.00"/>
    </timestep>
    <timestep time="36.00">
        <vehicle id="ev_0" x="1197.42" y="1137.06" angle="299.51" type="ev_type" speed="13.48" pos="451.94" lane="e0_58_0" slope="0.00"/>
        <vehicle id="ev_1" x="1644.71" y="1185.67" angle="6.51" type="ev_type" speed="0.00" pos="287.26" lane="e0_42_0" slope="0.00"/>
        <vehicle id="ev_2" x="1337.62" y="1098.01" angle="305.50" type="ev_type" speed="13.40" pos="310.97" lane="e0_47_0" slope="0.00"/>
        <vehicle id="ev_3" x="1871.10" y="899.71" angle="90.00" type="ev_type" speed="13.41" pos="243.08" lane="e0_38_0" slope="0.00"/>
        <vehicle id="ev_4" x="1809.37" y="869.26" angle="98.71" type="ev_type" speed="13.85" pos="179.48" lane="e0_35_0" slope="0.00"/>
        <vehicle id="ev_5" x="1497.20" y="916.97" angle="277.06" type="ev_type" speed="11.53" pos="98.11" lane="e0_12_0" slope="0.00"/>
        <vehicle id="ev_6" x="1527.57" y="890.69" angle="261.62" type="ev_type" speed="11.01" pos="43.02" lane="e0_16_0" slope="0.00"/>
        <vehicle id="ev_7" x="1561.66" y="899.86" angle="266.44" type="ev_type" speed="2.60" pos="7.20" lane="e0_14_0" slope="0.00"/>
    </timestep>
    <timestep time="37.00">
        <vehicle id="ev_0" x="1185.72" y="1143.68" angle="299.51" type="ev_type" speed="13.78" pos="465.72" lane="e0_58_0" slope="0.00"/>
        <vehicle id="ev_1" x="1644.71" y="1185.67" angle="6.51" type="ev_type" speed="0.00" pos="287.26" lane="e0_42_0" slope="0.00"/>
        <vehicle id="ev_2" x="1327.34" y="1105.34" angle="305.50" type="ev_type" speed="13.02" pos="323.99" lane="e0_47_0" slope="0.00"/>
        <vehicle id="ev_3" x="1884.09" y="899.71" angle="90.00" type="ev_type" speed="13.41" pos="256.49" lane="e0_38_0" slope="0.00"/>
        <vehicle id="ev_4" x="1821.89" y="867.34" angle="98.71" type="ev_type" speed="12.90" pos="192.37" lane="e0_35_0" slope="0.00"/>
        <vehicle id="ev_5" x="1487.15" y="918.22" angle="277.06" type="ev_type" speed="10.67" pos="108.77" lane="e0_12_0" slope="0.00"/>
        <vehicle id="ev_6" x="1515.31" y="888.88" angle="261.62" type="ev_type" speed="12.75" pos="55.77" lane="e0_16_0" slope="0.00"/>
        <vehicle id="ev_7" x="1557.07" y="899.58" angle="266.44" type="ev_type" speed="4.79" pos="11.99" lane="e0_14_0" slope="0.00"/>
    </timestep>
    <timestep time="38.00">
        <vehicle id="ev_0" x="1174.09" y="1150.27" angle="299.51" type="ev_type" speed="13.69" pos="479.41" lane="e0_58_0" slope="0.00"/>
        <vehicle id="ev_1" x="1644.71" y="1185.67" angle="6.51" type="ev_type" speed="0.00" pos="287.26" lane="e0_42_0" slope="0.00"/>
        <vehicle id="ev_2" x="1316.37" y="1113.16" angle="305.50" type="ev_type" speed="13.88" pos="337.87" lane="e0_47_0" slope="0.00"/>
        <vehicle id="ev_3" x="1897.19" y="899.71" angle="90.00" type="ev_type" speed="13.52" pos="270.00" lane="e0_38_0" slope="0.00"/>
        <vehicle id="ev_4" x="1834.57" y="865.40" angle="98.71" type="ev_type" speed="13.05" pos="205.43" lane="e0_35_0" slope="0.00"/>
        <vehicle id="ev_5" x="1476.84" y="919.49" angle="277.06" type="ev_type" speed="10.94" pos="119.71" lane="e0_12_0" slope="0.00"/>
        <vehicle id="ev_6" x="1502.45" y="886.99" angle="261.62" type="ev_type" speed="13.38" pos="69.14" lane="e0_16_0" slope="0.00"/>
        <vehicle id="ev_7" x="1550.86" y="899.19" angle="266.44" type="ev_type" speed="6.47" pos="18.46" lane="e0_14_0" slope="0.00"/>
    </timestep>
    <timestep time="39.00">
        <vehicle id="ev_0" x="1163.05" y="1156.51" angle="299.51" type="ev_type" speed="12.99" pos="492.40" lane="e0_58_0" slope="0.00"/>
        <vehicle id="ev_1" x="1644.71" y="1185.67" angle="6.51" type="ev_type" speed="0.00" pos="287.26" lane="e0_42_0" slope="0.00"/>
        <vehicle id="ev_2" x="1306.03" y="1120.54" angle="305.50" type="ev_type" speed="13.08" pos="350.95" lane="e0_47_0" slope="0.00"/>
        <vehicle id="ev_3" x="1910.16" y="899.71" angle="90.00" type="ev_type" speed="13.38" pos="283.39" lane="e0_38_0" slope="0.00"/>
        <vehicle id="ev_4" x="1847.60" y="863.40" angle="98.71" type="ev_type" speed="13.41" pos="218.84" lane="e0_35_0" slope="0.00"/>
        <vehicle id="ev_5" x="1466.52" y="920.77" angle="277.06" type="ev_type" speed="10.95" pos="130.67" lane="e0_12_0" slope="0.00"/>
        <vehicle id="ev_6" x="1489.52" y="885.09" angle="261.62" type="ev_type" speed="13.45" pos="82.60" lane="e0_16_0" slope="0.00"/>
        <vehicle id="ev_7" x="1542.98" y="898.70" angle="266.44" type="ev_type" speed="8.22" pos="26.68" lane="e0_14_0" slope="0.00"/>
    </timestep>
    <timestep time="40.00">
        <vehicle id="ev_0" x="1151.60" y="1162.99" angle="299.51" type="ev_type" speed="13.47" pos="505.87" lane="e0_58_0" slope="0.00"/>
        <vehicle id="ev_1" x="1644.71" y="1185.67" angle="6.51" type="ev_type" speed="0.00" pos="287.26" lane="e0_42_0" slope="0.00"/>
        <vehicle id="ev_2" x="1295.80" y="1127.83" angle="305.50" type="ev_type" speed="12.94" pos="363.89" lane="e0_47_0" slope="0.00"/>
        <vehicle id="ev_3" x="1922.73" y="899.71" angle="90.00" type="ev_type" speed="12.97" pos="296.36" lane="e0_38_0" slope="0.00"/>
        <vehicle id="ev_4" x="1860.13" y="861.48" angle="98.71" type="ev_type" speed="12.90" pos="231.74" lane="e0_35_0" slope="0.00"/>
        <vehicle id="ev_5" x="1456.34" y="922.03" angle="277.06" type="ev_type" speed="10.81" pos="141.47" lane="e0_12_0" slope="0.00"/>
        <vehicle id="ev_6" x="1476.77" y="883.21" angle="261.62" type="ev_type" speed="13.26" pos="95.85" lane="e0_16_0" slope="0.00"/>
        <vehicle id="ev_7" x="1533.45" y="898.11" angle="266.44" type="ev_type" speed="9.93" pos="36.61" lane="e0_14_0" slope="0.00"/>
    </timestep>
    <timestep time="41.00">
        <vehicle id="ev_0" x="1140.17" y="1169.46" angle="299.51" type="ev_type" speed="13.45" pos="519.32" lane="e0_58_0" slope="0.00"/>
        <vehicle id="ev_1" x="1644.71" y="1185.67" angle="6.51" type="ev_type" speed="0.00" pos="287.26" lane="e0_42_0" slope="0.00"/>
        <vehicle id="ev_2" x="1285.60" y="1135.11" angle="305.50" type="ev_type" speed="12.92" pos="376.81" lane="e0_47_0" slope="0.00"/>
        <vehicle id="ev_3" x="1935.12" y="899.71" angle="90.00" type="ev_type" speed="12.79" pos="309.14" lane="e0_38_0" slope="0.00"/>
        <vehicle id="ev_4" x="1873.00" y="859.51" angle="98.71" type="ev_type" speed="13.25" pos="244.99" lane="e0_35_0" slope="0.00"/>
        <vehicle id="ev_5" x="1445.78" y="923.34" angle="277.06" type="ev_type" speed="11.20" pos="152.67" lane="e0_12_0" slope="0.00"/>
        <vehicle id="ev_6" x="1464.06" y="881.34" angle="261.62" type="ev_type" speed="13.21" pos="109.07" lane="e0_16_0" slope="0.00"/>
        <vehicle id="ev_7" x="1522.83" y="897.45" angle="266.44" type="ev_type" speed="11.08" pos="47.69" lane="e0_14_0" slope="0.00"/>
    </timestep>